 vasp.5.4.1 24Jun15 (build Mar 15 2017 12:38:02) complex                        
  
 executed on           IFC91_ompi date 2019.03.24  12:05:34
 running on    1 total cores
 distrk:  each k-point on    1 cores,    1 groups
 distr:  one band on NCORES_PER_BAND=   1 cores,    1 groups


--------------------------------------------------------------------------------------------------------


 INCAR:
 POTCAR:    PAW_PBE Cu 22Jun2005                  
 POTCAR:    PAW_PBE Cl 06Sep2000                  
 POTCAR:    PAW_PBE Cu 22Jun2005                  
   VRHFIN =Cu: d10 p1                                                           
   LEXCH  = PE                                                                  
   EATOM  =  1390.9808 eV,  102.2342 Ry                                         
                                                                                
   TITEL  = PAW_PBE Cu 22Jun2005                                                
   LULTRA =        F    use ultrasoft PP ?                                      
   IUNSCR =        1    unscreen: 0-lin 1-nonlin 2-no                           
   RPACOR =    2.000    partial core radius                                     
   POMASS =   63.546; ZVAL   =   11.000    mass and valenz                      
   RCORE  =    2.300    outmost cutoff radius                                   
   RWIGS  =    2.200; RWIGS  =    1.164    wigner-seitz radius (au A)           
   ENMAX  =  295.446; ENMIN  =  221.585 eV                                      
   ICORE  =        3    local potential                                         
   LCOR   =        T    correct aug charges                                     
   LPAW   =        T    paw PP                                                  
   EAUG   =  586.980                                                            
   DEXC   =    0.000                                                            
   RMAX   =    2.344    core radius for proj-oper                               
   RAUG   =    1.300    factor for augmentation sphere                          
   RDEP   =    2.302    radius for radial grids                                 
   RDEPT  =    1.771    core radius for aug-charge                              
                                                                                
   Atomic configuration                                                         
    9 entries                                                                   
     n  l   j            E        occ.                                          
     1  0  0.50     -8850.2468   2.0000                                         
     2  0  0.50     -1062.3498   2.0000                                         
     2  1  1.50      -916.8226   6.0000                                         
     3  0  0.50      -114.6929   2.0000                                         
     3  1  1.50       -72.1325   6.0000                                         
     3  2  2.50        -5.0394  10.0000                                         
     4  0  0.50        -4.6097   1.0000                                         
     4  1  0.50        -4.0817   0.0000                                         
     4  3  2.50        -1.3606   0.0000                                         
   Description                                                                  
     l       E           TYP  RCUT    TYP  RCUT                                 
     2     -5.0393973     23  2.200                                             
     2     10.8846608     23  2.200                                             
     0     -4.6097109     23  2.200                                             
     0      8.2520465     23  2.200                                             
     1     -2.7211652     23  2.200                                             
     1     21.7055443     23  2.200                                             
     3      2.7211652     23  2.300                                             
  local pseudopotential read in
  partial core-charges read in
  partial kinetic energy density read in
  atomic valenz-charges read in
  non local Contribution for L=           2  read in
    real space projection operators read in
  non local Contribution for L=           2  read in
    real space projection operators read in
  non local Contribution for L=           0  read in
    real space projection operators read in
  non local Contribution for L=           0  read in
    real space projection operators read in
  non local Contribution for L=           1  read in
    real space projection operators read in
  non local Contribution for L=           1  read in
    real space projection operators read in
    PAW grid and wavefunctions read in
 
   number of l-projection  operators is LMAX  =           6
   number of lm-projection operators is LMMAX =          18
 
 POTCAR:    PAW_PBE Cl 06Sep2000                  
   VRHFIN =Cl: s2p5                                                             
   LEXCH  = PE                                                                  
   EATOM  =   409.7259 eV,   30.1140 Ry                                         
                                                                                
   TITEL  = PAW_PBE Cl 06Sep2000                                                
   LULTRA =        F    use ultrasoft PP ?                                      
   IUNSCR =        1    unscreen: 0-lin 1-nonlin 2-no                           
   RPACOR =    1.500    partial core radius                                     
   POMASS =   35.453; ZVAL   =    7.000    mass and valenz                      
   RCORE  =    1.900    outmost cutoff radius                                   
   RWIGS  =    2.100; RWIGS  =    1.111    wigner-seitz radius (au A)           
   ENMAX  =  262.472; ENMIN  =  196.854 eV                                      
   ICORE  =        2    local potential                                         
   LCOR   =        T    correct aug charges                                     
   LPAW   =        T    paw PP                                                  
   EAUG   =  356.192                                                            
   DEXC   =    0.000                                                            
   RMAX   =    1.945    core radius for proj-oper                               
   RAUG   =    1.300    factor for augmentation sphere                          
   RDEP   =    2.020    radius for radial grids                                 
   RDEPT  =    1.678    core radius for aug-charge                              
                                                                                
   Atomic configuration                                                         
    6 entries                                                                   
     n  l   j            E        occ.                                          
     1  0  0.50     -2751.1850   2.0000                                         
     2  0  0.50      -252.6861   2.0000                                         
     2  1  1.50      -191.6157   6.0000                                         
     3  0  0.50       -20.6916   2.0000                                         
     3  1  0.50        -8.5949   5.0000                                         
     3  2  1.50        -8.1635   0.0000                                         
   Description                                                                  
     l       E           TYP  RCUT    TYP  RCUT                                 
     0    -20.6915656     23  1.900                                             
     0    -22.0521482     23  1.900                                             
     1     -8.5948577     23  1.900                                             
     1     -5.3847331     23  1.900                                             
     2     -8.1634956     23  1.900                                             
  local pseudopotential read in
  partial core-charges read in
  partial kinetic energy density read in
  atomic valenz-charges read in
  non local Contribution for L=           0  read in
    real space projection operators read in
  non local Contribution for L=           0  read in
    real space projection operators read in
  non local Contribution for L=           1  read in
    real space projection operators read in
  non local Contribution for L=           1  read in
    real space projection operators read in
    PAW grid and wavefunctions read in
 
   number of l-projection  operators is LMAX  =           4
   number of lm-projection operators is LMMAX =           8
 
  PAW_PBE Cu 22Jun2005                  :
 energy of atom  1       EATOM=-1390.9808
 kinetic energy error for atom=    0.0452 (will be added to EATOM!!)
  PAW_PBE Cl 06Sep2000                  :
 energy of atom  2       EATOM= -409.7259
 kinetic energy error for atom=    0.0163 (will be added to EATOM!!)
 
 
 POSCAR: Zincblende CuCl                         
  positions in direct lattice
  No initial velocities read in
 exchange correlation table for  LEXCH =        8
   RHO(1)=    0.500       N(1)  =     2000
   RHO(2)=  100.500       N(2)  =     4000
 


--------------------------------------------------------------------------------------------------------


 ion  position               nearest neighbor table
   1  0.000  0.000  0.000-   2 1.56   2 1.56   2 1.56   2 1.56
   2  0.250  0.250  0.250-   1 1.56   1 1.56   1 1.56   1 1.56
 
  LATTYP: Found a face centered cubic cell.
 ALAT       =     3.6100000000
  
  Lattice vectors:
  
 A1 = (   0.0000000000,   1.8050000000,   1.8050000000)
 A2 = (   1.8050000000,   0.0000000000,   1.8050000000)
 A3 = (   1.8050000000,   1.8050000000,   0.0000000000)


Analysis of symmetry for initial positions (statically):
=====================================================================
 Subroutine PRICEL returns:
 Original cell was already a primitive cell.
 

 Routine SETGRP: Setting up the symmetry group for a 
 face centered cubic supercell.


 Subroutine GETGRP returns: Found 24 space group operations
 (whereof 24 operations were pure point group operations)
 out of a pool of 48 trial point group operations.


The static configuration has the point symmetry T_d .


Analysis of symmetry for dynamics (positions and initial velocities):
=====================================================================
 Subroutine PRICEL returns:
 Original cell was already a primitive cell.
 

 Routine SETGRP: Setting up the symmetry group for a 
 face centered cubic supercell.


 Subroutine GETGRP returns: Found 24 space group operations
 (whereof 24 operations were pure point group operations)
 out of a pool of 48 trial point group operations.


The dynamic configuration has the point symmetry T_d .


 Subroutine INISYM returns: Found 24 space group operations
 (whereof 24 operations are pure point group operations),
 and found     1 'primitive' translations

 
 
 KPOINTS: KPOINTS generated by mykit              

Automatic generation of k-mesh.
Space group operators:
 irot       det(A)        alpha          n_x          n_y          n_z        tau_x        tau_y        tau_z
    1     1.000000     0.000000     1.000000     0.000000     0.000000     0.000000     0.000000     0.000000
    2     1.000000   120.000000    -0.577350    -0.577350    -0.577350     0.000000     0.000000     0.000000
    3     1.000000   120.000000     0.577350     0.577350     0.577350     0.000000     0.000000     0.000000
    4    -1.000000    90.000000     0.000000     0.000000    -1.000000     0.000000     0.000000     0.000000
    5    -1.000000   180.000000     0.000000     0.707107     0.707107     0.000000     0.000000     0.000000
    6    -1.000000    90.000000     0.000000     1.000000     0.000000     0.000000     0.000000     0.000000
    7     1.000000   179.999999     0.000000     0.000000     1.000000     0.000000     0.000000     0.000000
    8     1.000000   120.000000    -0.577350     0.577350     0.577350     0.000000     0.000000     0.000000
    9     1.000000   120.000000    -0.577350     0.577350    -0.577350     0.000000     0.000000     0.000000
   10    -1.000000    90.000000     0.000000     0.000000     1.000000     0.000000     0.000000     0.000000
   11    -1.000000    90.000000    -1.000000     0.000000     0.000000     0.000000     0.000000     0.000000
   12    -1.000000   180.000000     0.707107     0.000000     0.707107     0.000000     0.000000     0.000000
   13     1.000000   120.000000     0.577350    -0.577350     0.577350     0.000000     0.000000     0.000000
   14     1.000000   120.000000    -0.577350    -0.577350     0.577350     0.000000     0.000000     0.000000
   15     1.000000   180.000000     1.000000     0.000000     0.000000     0.000000     0.000000     0.000000
   16    -1.000000    90.000000     0.000000    -1.000000     0.000000     0.000000     0.000000     0.000000
   17    -1.000000   180.000000     0.707107     0.707107     0.000000     0.000000     0.000000     0.000000
   18    -1.000000    90.000000     1.000000     0.000000     0.000000     0.000000     0.000000     0.000000
   19     1.000000   120.000000     0.577350    -0.577350    -0.577350     0.000000     0.000000     0.000000
   20     1.000000   180.000000     0.000000     1.000000     0.000000     0.000000     0.000000     0.000000
   21     1.000000   120.000000     0.577350     0.577350    -0.577350     0.000000     0.000000     0.000000
   22    -1.000000   180.000000     0.000000    -0.707107     0.707107     0.000000     0.000000     0.000000
   23    -1.000000   180.000000     0.707107    -0.707107     0.000000     0.000000     0.000000     0.000000
   24    -1.000000   180.000000     0.707107     0.000000    -0.707107     0.000000     0.000000     0.000000
 
 Subroutine IBZKPT returns following result:
 ===========================================
 
 Found     35 irreducible k-points:
 
 Following reciprocal coordinates:
            Coordinates               Weight
  0.000000  0.000000  0.000000      1.000000
  0.111111  0.000000  0.000000      8.000000
  0.222222  0.000000  0.000000      8.000000
  0.333333  0.000000  0.000000      8.000000
  0.444444  0.000000  0.000000      8.000000
  0.111111  0.111111  0.000000      6.000000
  0.222222  0.111111  0.000000     24.000000
  0.333333  0.111111  0.000000     24.000000
  0.444444  0.111111  0.000000     24.000000
 -0.444444  0.111111  0.000000     24.000000
 -0.333333  0.111111  0.000000     24.000000
 -0.222222  0.111111  0.000000     24.000000
 -0.111111  0.111111  0.000000     12.000000
  0.222222  0.222222  0.000000      6.000000
  0.333333  0.222222  0.000000     24.000000
  0.444444  0.222222  0.000000     24.000000
 -0.444444  0.222222  0.000000     24.000000
 -0.333333  0.222222  0.000000     24.000000
 -0.222222  0.222222  0.000000     12.000000
  0.333333  0.333333  0.000000      6.000000
  0.444444  0.333333  0.000000     24.000000
 -0.444444  0.333333  0.000000     24.000000
 -0.333333  0.333333  0.000000     12.000000
  0.444444  0.444444  0.000000      6.000000
 -0.444444  0.444444  0.000000     12.000000
  0.333333  0.222222  0.111111     24.000000
  0.444444  0.222222  0.111111     48.000000
 -0.444444  0.222222  0.111111     48.000000
  0.444444  0.333333  0.111111     24.000000
 -0.444444  0.333333  0.111111     48.000000
 -0.333333  0.333333  0.111111     48.000000
 -0.222222  0.333333  0.111111     24.000000
 -0.444444  0.444444  0.111111     24.000000
 -0.333333  0.444444  0.111111     24.000000
 -0.333333  0.444444  0.222222     24.000000
 
 Following cartesian coordinates:
            Coordinates               Weight
  0.000000  0.000000  0.000000      1.000000
 -0.030779  0.030779  0.030779      8.000000
 -0.061557  0.061557  0.061557      8.000000
 -0.092336  0.092336  0.092336      8.000000
 -0.123115  0.123115  0.123115      8.000000
  0.000000  0.000000  0.061557      6.000000
 -0.030779  0.030779  0.092336     24.000000
 -0.061557  0.061557  0.123115     24.000000
 -0.092336  0.092336  0.153894     24.000000
  0.153894 -0.153894 -0.092336     24.000000
  0.123115 -0.123115 -0.061557     24.000000
  0.092336 -0.092336 -0.030779     24.000000
  0.061557 -0.061557  0.000000     12.000000
  0.000000  0.000000  0.123115      6.000000
 -0.030779  0.030779  0.153894     24.000000
 -0.061557  0.061557  0.184672     24.000000
  0.184672 -0.184672 -0.061557     24.000000
  0.153894 -0.153894 -0.030779     24.000000
  0.123115 -0.123115  0.000000     12.000000
  0.000000  0.000000  0.184672      6.000000
 -0.030779  0.030779  0.215451     24.000000
  0.215451 -0.215451 -0.030779     24.000000
  0.184672 -0.184672  0.000000     12.000000
  0.000000  0.000000  0.246230      6.000000
  0.246230 -0.246230  0.000000     12.000000
 -0.000000  0.061557  0.123115     24.000000
 -0.030779  0.092336  0.153894     48.000000
  0.215451 -0.153894 -0.092336     48.000000
 -0.000000  0.061557  0.184672     24.000000
  0.246230 -0.184672 -0.061557     48.000000
  0.215451 -0.153894 -0.030779     48.000000
  0.184672 -0.123115  0.000000     24.000000
  0.277008 -0.215451 -0.030779     24.000000
  0.246230 -0.184672  0.000000     24.000000
  0.277008 -0.153894 -0.030779     24.000000
 
 TETIRR: Found    115 inequivalent tetrahedra from     4374


--------------------------------------------------------------------------------------------------------




 Dimension of arrays:
   k-points           NKPTS =     35   k-points in BZ     NKDIM =     35   number of bands    NBANDS=     13
   number of dos      NEDOS =    301   number of ions     NIONS =      2
   non local maximal  LDIM  =      6   non local SUM 2l+1 LMDIM =     18
   total plane-waves  NPLWV =   1728
   max r-space proj   IRMAX =      1   max aug-charges    IRDMAX=   4455
   dimension x,y,z NGX =    12 NGY =   12 NGZ =   12
   dimension x,y,z NGXF=    24 NGYF=   24 NGZF=   24
   support grid    NGXF=    24 NGYF=   24 NGZF=   24
   ions per type =               1   1
 NGX,Y,Z   is equivalent  to a cutoff of   7.82,  7.82,  7.82 a.u.
 NGXF,Y,Z  is equivalent  to a cutoff of  15.63, 15.63, 15.63 a.u.


 I would recommend the setting:
   dimension x,y,z NGX =    11 NGY =   11 NGZ =   11
 SYSTEM =  unknown system                          
 POSCAR =  Zincblende CuCl                         

 Startparameter for this run:
   NWRITE =      2    write-flag & timer
   PREC   = normal    normal or accurate (medium, high low for compatibility)
   ISTART =      0    job   : 0-new  1-cont  2-samecut
   ICHARG =      2    charge: 1-file 2-atom 10-const
   ISPIN  =      1    spin polarized calculation?
   LNONCOLLINEAR =      F non collinear calculations
   LSORBIT =      F    spin-orbit coupling
   INIWAV =      1    electr: 0-lowe 1-rand  2-diag
   LASPH  =      F    aspherical Exc in radial PAW
   METAGGA=      F    non-selfconsistent MetaGGA calc.

 Electronic Relaxation 1
   ENCUT  =  295.4 eV  21.71 Ry    4.66 a.u.   3.58  3.58  3.58*2*pi/ulx,y,z
   ENINI  =  295.4     initial cutoff
   ENAUG  =  587.0 eV  augmentation charge cutoff
   NELM   =     60;   NELMIN=  2; NELMDL= -5     # of ELM steps 
   EDIFF  = 0.1E-05   stopping-criterion for ELM
   LREAL  =      F    real-space projection
   NLSPLINE    = F    spline interpolate recip. space projectors
   LCOMPAT=      F    compatible to vasp.4.4
   GGA_COMPAT  = T    GGA compatible to vasp.4.4-vasp.4.6
   LMAXPAW     = -100 max onsite density
   LMAXMIX     =    6 max onsite mixed and CHGCAR
   VOSKOWN=      0    Vosko Wilk Nusair interpolation
   ROPT   =    0.00000   0.00000
 Ionic relaxation
   EDIFFG = 0.1E-04   stopping-criterion for IOM
   NSW    =      0    number of steps for IOM
   NBLOCK =      1;   KBLOCK =      1    inner block; outer block 
   IBRION =     -1    ionic relax: 0-MD 1-quasi-New 2-CG
   NFREE  =      0    steps in history (QN), initial steepest desc. (CG)
   ISIF   =      2    stress and relaxation
   IWAVPR =     10    prediction:  0-non 1-charg 2-wave 3-comb
   ISYM   =      2    0-nonsym 1-usesym 2-fastsym
   LCORR  =      T    Harris-Foulkes like correction to forces

   POTIM  = 0.5000    time-step for ionic-motion
   TEIN   =    0.0    initial temperature
   TEBEG  =    0.0;   TEEND  =   0.0 temperature during run
   SMASS  =  -3.00    Nose mass-parameter (am)
   estimated Nose-frequenzy (Omega)   =  0.10E-29 period in steps =****** mass=  -0.149E-27a.u.
   SCALEE = 1.0000    scale energy and forces
   NPACO  =    256;   APACO  = 16.0  distance and # of slots for P.C.
   PSTRESS=    0.0 pullay stress

  Mass of Ions in am
   POMASS =  63.55 35.45
  Ionic Valenz
   ZVAL   =  11.00  7.00
  Atomic Wigner-Seitz radii
   RWIGS  =  -1.00 -1.00
  virtual crystal weights 
   VCA    =   1.00  1.00
   NELECT =      18.0000    total number of electrons
   NUPDOWN=      -1.0000    fix difference up-down

 DOS related values:
   EMIN   =  10.00;   EMAX   =-10.00  energy-range for DOS
   EFERMI =   0.00
   ISMEAR =    -5;   SIGMA  =   0.20  broadening in eV -4-tet -1-fermi 0-gaus

 Electronic relaxation 2 (details)
   IALGO  =     38    algorithm
   LDIAG  =      T    sub-space diagonalisation (order eigenvalues)
   LSUBROT=      F    optimize rotation matrix (better conditioning)
   TURBO    =      0    0=normal 1=particle mesh
   IRESTART =      0    0=no restart 2=restart with 2 vectors
   NREBOOT  =      0    no. of reboots
   NMIN     =      0    reboot dimension
   EREF     =   0.00    reference energy to select bands
   IMIX   =      4    mixing-type and parameters
     AMIX     =   0.40;   BMIX     =  1.00
     AMIX_MAG =   1.60;   BMIX_MAG =  1.00
     AMIN     =   0.10
     WC   =   100.;   INIMIX=   1;  MIXPRE=   1;  MAXMIX= -45

 Intra band minimization:
   WEIMIN = 0.0000     energy-eigenvalue tresh-hold
   EBREAK =  0.19E-07  absolut break condition
   DEPER  =   0.30     relativ break condition  

   TIME   =   0.40     timestep for ELM

  volume/ion in A,a.u.               =       5.88        39.69
  Fermi-wavevector in a.u.,A,eV,Ry     =   1.886594  3.565146 48.426361  3.559237
  Thomas-Fermi vector in A             =   2.928823
 
 Write flags
   LWAVE  =      T    write WAVECAR
   LCHARG =      T    write CHGCAR
   LVTOT  =      F    write LOCPOT, total local potential
   LVHAR  =      F    write LOCPOT, Hartree potential only
   LELF   =      F    write electronic localiz. function (ELF)
   LORBIT =      0    0 simple, 1 ext, 2 COOP (PROOUT)


 Dipole corrections
   LMONO  =      F    monopole corrections only (constant potential shift)
   LDIPOL =      F    correct potential (dipole corrections)
   IDIPOL =      0    1-x, 2-y, 3-z, 4-all directions 
   EPSILON=  1.0000000 bulk dielectric constant

 Exchange correlation treatment:
   GGA     =    --    GGA type
   LEXCH   =     8    internal setting for exchange type
   VOSKOWN=      0    Vosko Wilk Nusair interpolation
   LHFCALC =     F    Hartree Fock is set to
   LHFONE  =     F    Hartree Fock one center treatment
   AEXX    =    0.0000 exact exchange contribution

 Linear response parameters
   LEPSILON=     F    determine dielectric tensor
   LRPA    =     F    only Hartree local field effects (RPA)
   LNABLA  =     F    use nabla operator in PAW spheres
   LVEL    =     F    velocity operator in full k-point grid
   LINTERFAST=   F  fast interpolation
   KINTER  =     0    interpolate to denser k-point grid
   CSHIFT  =0.1000    complex shift for real part using Kramers Kronig
   OMEGAMAX=  -1.0    maximum frequency
   DEG_THRESHOLD= 0.2000000E-02 threshold for treating states as degnerate
   RTIME   =    0.100 relaxation time in fs

 Orbital magnetization related:
   ORBITALMAG=     F  switch on orbital magnetization
   LCHIMAG   =     F  perturbation theory with respect to B field
   DQ        =  0.001000  dq finite difference perturbation B field



--------------------------------------------------------------------------------------------------------


 Static calculation
 charge density and potential will be updated during run
 non-spin polarized calculation
 Variant of blocked Davidson
 Davidson routine will perform the subspace rotation
 perform sub-space diagonalisation
    after iterative eigenvector-optimisation
 modified Broyden-mixing scheme, WC =      100.0
 initial mixing is a Kerker type mixing with AMIX =  0.4000 and BMIX =      1.0000
 Hartree-type preconditioning will be used
 using additional bands            4
 reciprocal scheme for non local part
 use partial core corrections
 calculate Harris-corrections to forces 
   (improved forces if not selfconsistent)
 use gradient corrections 
 use of overlap-Matrix (Vanderbilt PP)
 Fermi weights with tetrahedron method with Bloechl corrections


--------------------------------------------------------------------------------------------------------


  energy-cutoff  :      295.45
  volume of cell :       11.76
      direct lattice vectors                 reciprocal lattice vectors
     0.000000000  1.805000000  1.805000000    -0.277008310  0.277008310  0.277008310
     1.805000000  0.000000000  1.805000000     0.277008310 -0.277008310  0.277008310
     1.805000000  1.805000000  0.000000000     0.277008310  0.277008310 -0.277008310

  length of vectors
     2.552655480  2.552655480  2.552655480     0.479792467  0.479792467  0.479792467


 
 k-points in units of 2pi/SCALE and weight: KPOINTS generated by mykit              
   0.00000000  0.00000000  0.00000000       0.001
  -0.03077870  0.03077870  0.03077870       0.011
  -0.06155740  0.06155740  0.06155740       0.011
  -0.09233610  0.09233610  0.09233610       0.011
  -0.12311480  0.12311480  0.12311480       0.011
   0.00000000  0.00000000  0.06155740       0.008
  -0.03077870  0.03077870  0.09233610       0.033
  -0.06155740  0.06155740  0.12311480       0.033
  -0.09233610  0.09233610  0.15389351       0.033
   0.15389351 -0.15389351 -0.09233610       0.033
   0.12311480 -0.12311480 -0.06155740       0.033
   0.09233610 -0.09233610 -0.03077870       0.033
   0.06155740 -0.06155740  0.00000000       0.016
   0.00000000  0.00000000  0.12311480       0.008
  -0.03077870  0.03077870  0.15389351       0.033
  -0.06155740  0.06155740  0.18467221       0.033
   0.18467221 -0.18467221 -0.06155740       0.033
   0.15389351 -0.15389351 -0.03077870       0.033
   0.12311480 -0.12311480  0.00000000       0.016
   0.00000000  0.00000000  0.18467221       0.008
  -0.03077870  0.03077870  0.21545091       0.033
   0.21545091 -0.21545091 -0.03077870       0.033
   0.18467221 -0.18467221  0.00000000       0.016
   0.00000000  0.00000000  0.24622961       0.008
   0.24622961 -0.24622961  0.00000000       0.016
  -0.00000000  0.06155740  0.12311480       0.033
  -0.03077870  0.09233610  0.15389351       0.066
   0.21545091 -0.15389351 -0.09233610       0.066
  -0.00000000  0.06155740  0.18467221       0.033
   0.24622961 -0.18467221 -0.06155740       0.066
   0.21545091 -0.15389351 -0.03077870       0.066
   0.18467221 -0.12311480  0.00000000       0.033
   0.27700831 -0.21545091 -0.03077870       0.033
   0.24622961 -0.18467221  0.00000000       0.033
   0.27700831 -0.15389351 -0.03077870       0.033
 
 k-points in reciprocal lattice and weights: KPOINTS generated by mykit              
   0.00000000  0.00000000  0.00000000       0.001
   0.11111111  0.00000000  0.00000000       0.011
   0.22222222  0.00000000  0.00000000       0.011
   0.33333333  0.00000000  0.00000000       0.011
   0.44444444  0.00000000  0.00000000       0.011
   0.11111111  0.11111111  0.00000000       0.008
   0.22222222  0.11111111  0.00000000       0.033
   0.33333333  0.11111111  0.00000000       0.033
   0.44444444  0.11111111  0.00000000       0.033
  -0.44444444  0.11111111  0.00000000       0.033
  -0.33333333  0.11111111  0.00000000       0.033
  -0.22222222  0.11111111  0.00000000       0.033
  -0.11111111  0.11111111  0.00000000       0.016
   0.22222222  0.22222222  0.00000000       0.008
   0.33333333  0.22222222  0.00000000       0.033
   0.44444444  0.22222222  0.00000000       0.033
  -0.44444444  0.22222222  0.00000000       0.033
  -0.33333333  0.22222222  0.00000000       0.033
  -0.22222222  0.22222222  0.00000000       0.016
   0.33333333  0.33333333  0.00000000       0.008
   0.44444444  0.33333333  0.00000000       0.033
  -0.44444444  0.33333333  0.00000000       0.033
  -0.33333333  0.33333333  0.00000000       0.016
   0.44444444  0.44444444  0.00000000       0.008
  -0.44444444  0.44444444  0.00000000       0.016
   0.33333333  0.22222222  0.11111111       0.033
   0.44444444  0.22222222  0.11111111       0.066
  -0.44444444  0.22222222  0.11111111       0.066
   0.44444444  0.33333333  0.11111111       0.033
  -0.44444444  0.33333333  0.11111111       0.066
  -0.33333333  0.33333333  0.11111111       0.066
  -0.22222222  0.33333333  0.11111111       0.033
  -0.44444444  0.44444444  0.11111111       0.033
  -0.33333333  0.44444444  0.11111111       0.033
  -0.33333333  0.44444444  0.22222222       0.033
 
 position of ions in fractional coordinates (direct lattice) 
   0.00000000  0.00000000  0.00000000
   0.25000000  0.25000000  0.25000000
 
 position of ions in cartesian coordinates  (Angst):
   0.00000000  0.00000000  0.00000000
   0.90250000  0.90250000  0.90250000
 


--------------------------------------------------------------------------------------------------------


 k-point  1 :   0.0000 0.0000 0.0000  plane waves:     137
 k-point  2 :   0.1111 0.0000 0.0000  plane waves:     138
 k-point  3 :   0.2222 0.0000 0.0000  plane waves:     138
 k-point  4 :   0.3333 0.0000 0.0000  plane waves:     144
 k-point  5 :   0.4444 0.0000 0.0000  plane waves:     138
 k-point  6 :   0.1111 0.1111 0.0000  plane waves:     137
 k-point  7 :   0.2222 0.1111 0.0000  plane waves:     140
 k-point  8 :   0.3333 0.1111 0.0000  plane waves:     142
 k-point  9 :   0.4444 0.1111 0.0000  plane waves:     140
 k-point 10 :  -0.4444 0.1111 0.0000  plane waves:     129
 k-point 11 :  -0.3333 0.1111 0.0000  plane waves:     139
 k-point 12 :  -0.2222 0.1111 0.0000  plane waves:     140
 k-point 13 :  -0.1111 0.1111 0.0000  plane waves:     141
 k-point 14 :   0.2222 0.2222 0.0000  plane waves:     133
 k-point 15 :   0.3333 0.2222 0.0000  plane waves:     139
 k-point 16 :   0.4444 0.2222 0.0000  plane waves:     138
 k-point 17 :  -0.4444 0.2222 0.0000  plane waves:     132
 k-point 18 :  -0.3333 0.2222 0.0000  plane waves:     135
 k-point 19 :  -0.2222 0.2222 0.0000  plane waves:     136
 k-point 20 :   0.3333 0.3333 0.0000  plane waves:     129
 k-point 21 :   0.4444 0.3333 0.0000  plane waves:     135
 k-point 22 :  -0.4444 0.3333 0.0000  plane waves:     131
 k-point 23 :  -0.3333 0.3333 0.0000  plane waves:     136
 k-point 24 :   0.4444 0.4444 0.0000  plane waves:     129
 k-point 25 :  -0.4444 0.4444 0.0000  plane waves:     134
 k-point 26 :   0.3333 0.2222 0.1111  plane waves:     137
 k-point 27 :   0.4444 0.2222 0.1111  plane waves:     140
 k-point 28 :  -0.4444 0.2222 0.1111  plane waves:     136
 k-point 29 :   0.4444 0.3333 0.1111  plane waves:     135
 k-point 30 :  -0.4444 0.3333 0.1111  plane waves:     129
 k-point 31 :  -0.3333 0.3333 0.1111  plane waves:     133
 k-point 32 :  -0.2222 0.3333 0.1111  plane waves:     136
 k-point 33 :  -0.4444 0.4444 0.1111  plane waves:     127
 k-point 34 :  -0.3333 0.4444 0.1111  plane waves:     131
 k-point 35 :  -0.3333 0.4444 0.2222  plane waves:     135

 maximum and minimum number of plane-waves per node :       144      127

 maximum number of plane-waves:       144
 maximum index in each direction: 
   IXMAX=    3   IYMAX=    3   IZMAX=    3
   IXMIN=   -4   IYMIN=   -3   IZMIN=   -3

 WARNING: aliasing errors must be expected set NGX to  16 to avoid them
 WARNING: aliasing errors must be expected set NGY to  14 to avoid them
 WARNING: aliasing errors must be expected set NGZ to  14 to avoid them
 aliasing errors are usually negligible using standard VASP settings
 and one can safely disregard these warnings

 serial   3D FFT for wavefunctions
 parallel 3D FFT for charge:
    minimum data exchange during FFTs selected (reduces bandwidth)


 total amount of memory used by VASP on root node    34119. kBytes
========================================================================

   base      :      30000. kBytes
   nonl-proj :       1456. kBytes
   fftplans  :        504. kBytes
   grid      :        891. kBytes
   one-center:         31. kBytes
   wavefun   :       1237. kBytes
 
     INWAV:  cpu time    0.0000: real time    0.0000
 Broyden mixing: mesh for mixing (old mesh)
   NGX =  7   NGY =  7   NGZ =  7
  (NGX  = 24   NGY  = 24   NGZ  = 24)
  gives a total of    343 points

 initial charge density was supplied:
 charge density of overlapping atoms calculated
 number of electron      18.0000000 magnetization 
 keeping initial charge density in first step


--------------------------------------------------------------------------------------------------------


 Maximum index for augmentation-charges         4093 (set IRDMAX)


--------------------------------------------------------------------------------------------------------


 First call to EWALD:  gamma=   0.779
 Maximum number of real-space cells 3x 3x 3
 Maximum number of reciprocal cells 3x 3x 3

 FEWALD executed in parallel
    FEWALD:  cpu time    0.0010: real time    0.0010


----------------------------------------- Iteration    1(   1)  ---------------------------------------


    POTLOK:  cpu time    0.0043: real time    0.0043
    SETDIJ:  cpu time    0.0028: real time    0.0028
     EDDAV:  cpu time    0.0599: real time    0.0601
 BZINTS: Fermi energy: 34.226733; 18.000000 electrons
         Band energy: 338.925514;  BLOECHL correction: -0.124733
       DOS:  cpu time    0.0014: real time    0.0014
    --------------------------------------------
      LOOP:  cpu time    0.0688: real time    0.0691

 eigenvalue-minimisations  :  1093
 total energy-change (2. order) : 0.1086260E+03  (-0.6796961E+03)
 number of electron      18.0000000 magnetization 
 augmentation part       18.0000000 magnetization 

 Free energy of the ion-electron system (eV)
  ---------------------------------------------------
  alpha Z        PSCENC =       147.92401758
  Ewald energy   TEWEN  =     -1800.82043417
  -Hartree energ DENC   =      -347.13401798
  -exchange      EXHF   =         0.00000000
  -V(xc)+E(xc)   XCENC  =        75.04126475
  PAW double counting   =      1553.48221720    -1659.43775895
  entropy T*S    EENTRO =         0.00000000
  eigenvalues    EBANDS =       338.92551363
  atomic energy  EATOM  =      1800.64518309
  Solvation  Ediel_sol  =         0.00000000
  ---------------------------------------------------
  free energy    TOTEN  =       108.62598514 eV

  energy without entropy =      108.62598514  energy(sigma->0) =      108.62598514


--------------------------------------------------------------------------------------------------------




----------------------------------------- Iteration    1(   2)  ---------------------------------------


     EDDAV:  cpu time    0.0517: real time    0.0518
 BZINTS: Fermi energy: 28.914482; 18.000000 electrons
         Band energy: 257.517193;  BLOECHL correction:  0.000000
       DOS:  cpu time    0.0005: real time    0.0005
    --------------------------------------------
      LOOP:  cpu time    0.0524: real time    0.0526

 eigenvalue-minimisations  :   950
 total energy-change (2. order) :-0.8140832E+02  (-0.7854997E+02)
 number of electron      18.0000000 magnetization 
 augmentation part       18.0000000 magnetization 

 Free energy of the ion-electron system (eV)
  ---------------------------------------------------
  alpha Z        PSCENC =       147.92401758
  Ewald energy   TEWEN  =     -1800.82043417
  -Hartree energ DENC   =      -347.13401798
  -exchange      EXHF   =         0.00000000
  -V(xc)+E(xc)   XCENC  =        75.04126475
  PAW double counting   =      1553.48221720    -1659.43775895
  entropy T*S    EENTRO =         0.00000000
  eigenvalues    EBANDS =       257.51719313
  atomic energy  EATOM  =      1800.64518309
  Solvation  Ediel_sol  =         0.00000000
  ---------------------------------------------------
  free energy    TOTEN  =        27.21766464 eV

  energy without entropy =       27.21766464  energy(sigma->0) =       27.21766464


--------------------------------------------------------------------------------------------------------




----------------------------------------- Iteration    1(   3)  ---------------------------------------


     EDDAV:  cpu time    0.0606: real time    0.0608
 BZINTS: Fermi energy: 27.859802; 18.000000 electrons
         Band energy: 253.352852;  BLOECHL correction:  0.000000
       DOS:  cpu time    0.0005: real time    0.0005
    --------------------------------------------
      LOOP:  cpu time    0.0612: real time    0.0615

 eigenvalue-minimisations  :  1143
 total energy-change (2. order) :-0.4164341E+01  (-0.4130628E+01)
 number of electron      18.0000000 magnetization 
 augmentation part       18.0000000 magnetization 

 Free energy of the ion-electron system (eV)
  ---------------------------------------------------
  alpha Z        PSCENC =       147.92401758
  Ewald energy   TEWEN  =     -1800.82043417
  -Hartree energ DENC   =      -347.13401798
  -exchange      EXHF   =         0.00000000
  -V(xc)+E(xc)   XCENC  =        75.04126475
  PAW double counting   =      1553.48221720    -1659.43775895
  entropy T*S    EENTRO =         0.00000000
  eigenvalues    EBANDS =       253.35285225
  atomic energy  EATOM  =      1800.64518309
  Solvation  Ediel_sol  =         0.00000000
  ---------------------------------------------------
  free energy    TOTEN  =        23.05332375 eV

  energy without entropy =       23.05332375  energy(sigma->0) =       23.05332375


--------------------------------------------------------------------------------------------------------




----------------------------------------- Iteration    1(   4)  ---------------------------------------


     EDDAV:  cpu time    0.0548: real time    0.0550
 BZINTS: Fermi energy: 27.879246; 18.000000 electrons
         Band energy: 253.289415;  BLOECHL correction:  0.000000
       DOS:  cpu time    0.0005: real time    0.0005
    --------------------------------------------
      LOOP:  cpu time    0.0554: real time    0.0556

 eigenvalue-minimisations  :  1025
 total energy-change (2. order) :-0.6343689E-01  (-0.6340398E-01)
 number of electron      18.0000000 magnetization 
 augmentation part       18.0000000 magnetization 

 Free energy of the ion-electron system (eV)
  ---------------------------------------------------
  alpha Z        PSCENC =       147.92401758
  Ewald energy   TEWEN  =     -1800.82043417
  -Hartree energ DENC   =      -347.13401798
  -exchange      EXHF   =         0.00000000
  -V(xc)+E(xc)   XCENC  =        75.04126475
  PAW double counting   =      1553.48221720    -1659.43775895
  entropy T*S    EENTRO =         0.00000000
  eigenvalues    EBANDS =       253.28941536
  atomic energy  EATOM  =      1800.64518309
  Solvation  Ediel_sol  =         0.00000000
  ---------------------------------------------------
  free energy    TOTEN  =        22.98988687 eV

  energy without entropy =       22.98988687  energy(sigma->0) =       22.98988687


--------------------------------------------------------------------------------------------------------




----------------------------------------- Iteration    1(   5)  ---------------------------------------


     EDDAV:  cpu time    0.0602: real time    0.0604
 BZINTS: Fermi energy: 27.848431; 18.000000 electrons
         Band energy: 253.288561;  BLOECHL correction: -0.000000
       DOS:  cpu time    0.0005: real time    0.0005
    CHARGE:  cpu time    0.0040: real time    0.0040
    MIXING:  cpu time    0.0002: real time    0.0002
    --------------------------------------------
      LOOP:  cpu time    0.0650: real time    0.0652

 eigenvalue-minimisations  :  1144
 total energy-change (2. order) :-0.8542392E-03  (-0.8542208E-03)
 number of electron      17.9999880 magnetization 
 augmentation part        5.1766139 magnetization 

 Broyden mixing:
  rms(total) = 0.24914E+01    rms(broyden)= 0.24909E+01
  rms(prec ) = 0.46767E+01
  weight for this iteration     100.00

 Free energy of the ion-electron system (eV)
  ---------------------------------------------------
  alpha Z        PSCENC =       147.92401758
  Ewald energy   TEWEN  =     -1800.82043417
  -Hartree energ DENC   =      -347.13401798
  -exchange      EXHF   =         0.00000000
  -V(xc)+E(xc)   XCENC  =        75.04126475
  PAW double counting   =      1553.48221720    -1659.43775895
  entropy T*S    EENTRO =         0.00000000
  eigenvalues    EBANDS =       253.28856112
  atomic energy  EATOM  =      1800.64518309
  Solvation  Ediel_sol  =         0.00000000
  ---------------------------------------------------
  free energy    TOTEN  =        22.98903263 eV

  energy without entropy =       22.98903263  energy(sigma->0) =       22.98903263


--------------------------------------------------------------------------------------------------------




----------------------------------------- Iteration    1(   6)  ---------------------------------------


    POTLOK:  cpu time    0.0041: real time    0.0041
    SETDIJ:  cpu time    0.0025: real time    0.0025
     EDDAV:  cpu time    0.0572: real time    0.0574
 BZINTS: Fermi energy: 27.246134; 18.000000 electrons
         Band energy: 237.459251;  BLOECHL correction:  0.000000
       DOS:  cpu time    0.0005: real time    0.0005
    CHARGE:  cpu time    0.0038: real time    0.0038
    MIXING:  cpu time    0.0002: real time    0.0002
    --------------------------------------------
      LOOP:  cpu time    0.0686: real time    0.0688

 eigenvalue-minimisations  :  1080
 total energy-change (2. order) : 0.2492532E+01  (-0.5048687E+00)
 number of electron      17.9999867 magnetization 
 augmentation part        5.7289095 magnetization 

 Broyden mixing:
  rms(total) = 0.17505E+01    rms(broyden)= 0.17504E+01
  rms(prec ) = 0.19412E+01
  weight for this iteration     100.00

 eigenvalues of (default mixing * dielectric matrix)
  average eigenvalue GAMMA=   1.7682
  1.7682

 Free energy of the ion-electron system (eV)
  ---------------------------------------------------
  alpha Z        PSCENC =       147.92401758
  Ewald energy   TEWEN  =     -1800.82043417
  -Hartree energ DENC   =      -319.88889012
  -exchange      EXHF   =         0.00000000
  -V(xc)+E(xc)   XCENC  =        74.05124753
  PAW double counting   =      2574.65136357    -2688.54017419
  entropy T*S    EENTRO =         0.00000000
  eigenvalues    EBANDS =       237.45925119
  atomic energy  EATOM  =      1800.64518309
  Solvation  Ediel_sol  =         0.00000000
  ---------------------------------------------------
  free energy    TOTEN  =        25.48156448 eV

  energy without entropy =       25.48156448  energy(sigma->0) =       25.48156448


--------------------------------------------------------------------------------------------------------




----------------------------------------- Iteration    1(   7)  ---------------------------------------


    POTLOK:  cpu time    0.0041: real time    0.0041
    SETDIJ:  cpu time    0.0025: real time    0.0025
     EDDAV:  cpu time    0.0591: real time    0.0593
 BZINTS: Fermi energy: 28.265028; 18.000000 electrons
         Band energy: 253.977318;  BLOECHL correction:  0.000000
       DOS:  cpu time    0.0005: real time    0.0005
    CHARGE:  cpu time    0.0037: real time    0.0037
    MIXING:  cpu time    0.0002: real time    0.0002
    --------------------------------------------
      LOOP:  cpu time    0.0704: real time    0.0706

 eigenvalue-minimisations  :  1114
 total energy-change (2. order) : 0.7198029E+00  (-0.2161520E+00)
 number of electron      17.9999872 magnetization 
 augmentation part        5.5112920 magnetization 

 Broyden mixing:
  rms(total) = 0.98603E+00    rms(broyden)= 0.98601E+00
  rms(prec ) = 0.13915E+01
  weight for this iteration     100.00

 eigenvalues of (default mixing * dielectric matrix)
  average eigenvalue GAMMA=   1.7854
  0.7338  2.8371

 Free energy of the ion-electron system (eV)
  ---------------------------------------------------
  alpha Z        PSCENC =       147.92401758
  Ewald energy   TEWEN  =     -1800.82043417
  -Hartree energ DENC   =      -320.33800217
  -exchange      EXHF   =         0.00000000
  -V(xc)+E(xc)   XCENC  =        74.16245290
  PAW double counting   =      3612.89025045    -3742.23941880
  entropy T*S    EENTRO =         0.00000000
  eigenvalues    EBANDS =       253.97731848
  atomic energy  EATOM  =      1800.64518309
  Solvation  Ediel_sol  =         0.00000000
  ---------------------------------------------------
  free energy    TOTEN  =        26.20136735 eV

  energy without entropy =       26.20136735  energy(sigma->0) =       26.20136735


--------------------------------------------------------------------------------------------------------




----------------------------------------- Iteration    1(   8)  ---------------------------------------


    POTLOK:  cpu time    0.0041: real time    0.0041
    SETDIJ:  cpu time    0.0025: real time    0.0025
     EDDAV:  cpu time    0.0721: real time    0.0724
 BZINTS: Fermi energy: 28.403311; 18.000000 electrons
         Band energy: 254.186544;  BLOECHL correction:  0.000000
       DOS:  cpu time    0.0005: real time    0.0005
    CHARGE:  cpu time    0.0037: real time    0.0038
    MIXING:  cpu time    0.0002: real time    0.0002
    --------------------------------------------
      LOOP:  cpu time    0.0834: real time    0.0837

 eigenvalue-minimisations  :  1376
 total energy-change (2. order) : 0.2505931E+00  (-0.1568783E-01)
 number of electron      17.9999871 magnetization 
 augmentation part        5.5836557 magnetization 

 Broyden mixing:
  rms(total) = 0.26270E+00    rms(broyden)= 0.26270E+00
  rms(prec ) = 0.35015E+00
  weight for this iteration     100.00

 eigenvalues of (default mixing * dielectric matrix)
  average eigenvalue GAMMA=   1.6146
  2.7140  1.3896  0.7402

 Free energy of the ion-electron system (eV)
  ---------------------------------------------------
  alpha Z        PSCENC =       147.92401758
  Ewald energy   TEWEN  =     -1800.82043417
  -Hartree energ DENC   =      -310.01269618
  -exchange      EXHF   =         0.00000000
  -V(xc)+E(xc)   XCENC  =        73.81284364
  PAW double counting   =      4926.67481003    -5065.95830722
  entropy T*S    EENTRO =         0.00000000
  eigenvalues    EBANDS =       254.18654369
  atomic energy  EATOM  =      1800.64518309
  Solvation  Ediel_sol  =         0.00000000
  ---------------------------------------------------
  free energy    TOTEN  =        26.45196046 eV

  energy without entropy =       26.45196046  energy(sigma->0) =       26.45196046


--------------------------------------------------------------------------------------------------------




----------------------------------------- Iteration    1(   9)  ---------------------------------------


    POTLOK:  cpu time    0.0041: real time    0.0041
    SETDIJ:  cpu time    0.0025: real time    0.0025
     EDDAV:  cpu time    0.0748: real time    0.0751
 BZINTS: Fermi energy: 28.387536; 18.000000 electrons
         Band energy: 252.639638;  BLOECHL correction:  0.000000
       DOS:  cpu time    0.0005: real time    0.0005
    CHARGE:  cpu time    0.0037: real time    0.0038
    MIXING:  cpu time    0.0003: real time    0.0003
    --------------------------------------------
      LOOP:  cpu time    0.0861: real time    0.0864

 eigenvalue-minimisations  :  1430
 total energy-change (2. order) : 0.9964563E-02  (-0.3132384E-02)
 number of electron      17.9999870 magnetization 
 augmentation part        5.6090030 magnetization 

 Broyden mixing:
  rms(total) = 0.43389E-01    rms(broyden)= 0.43381E-01
  rms(prec ) = 0.10201E+00
  weight for this iteration     100.00

 eigenvalues of (default mixing * dielectric matrix)
  average eigenvalue GAMMA=   1.4481
  2.5795  1.7793  0.7169  0.7169

 Free energy of the ion-electron system (eV)
  ---------------------------------------------------
  alpha Z        PSCENC =       147.92401758
  Ewald energy   TEWEN  =     -1800.82043417
  -Hartree energ DENC   =      -306.62409960
  -exchange      EXHF   =         0.00000000
  -V(xc)+E(xc)   XCENC  =        73.67897380
  PAW double counting   =      5289.64432546    -5430.62567954
  entropy T*S    EENTRO =         0.00000000
  eigenvalues    EBANDS =       252.63963840
  atomic energy  EATOM  =      1800.64518309
  Solvation  Ediel_sol  =         0.00000000
  ---------------------------------------------------
  free energy    TOTEN  =        26.46192502 eV

  energy without entropy =       26.46192502  energy(sigma->0) =       26.46192502


--------------------------------------------------------------------------------------------------------




----------------------------------------- Iteration    1(  10)  ---------------------------------------


    POTLOK:  cpu time    0.0041: real time    0.0041
    SETDIJ:  cpu time    0.0025: real time    0.0025
     EDDAV:  cpu time    0.0711: real time    0.0713
 BZINTS: Fermi energy: 28.359721; 18.000000 electrons
         Band energy: 252.559229;  BLOECHL correction:  0.000000
       DOS:  cpu time    0.0005: real time    0.0005
    CHARGE:  cpu time    0.0038: real time    0.0038
    MIXING:  cpu time    0.0003: real time    0.0003
    --------------------------------------------
      LOOP:  cpu time    0.0824: real time    0.0827

 eigenvalue-minimisations  :  1362
 total energy-change (2. order) : 0.1476529E-02  (-0.4042167E-03)
 number of electron      17.9999870 magnetization 
 augmentation part        5.6030055 magnetization 

 Broyden mixing:
  rms(total) = 0.26234E-01    rms(broyden)= 0.26234E-01
  rms(prec ) = 0.40295E-01
  weight for this iteration     100.00

 eigenvalues of (default mixing * dielectric matrix)
  average eigenvalue GAMMA=   1.6571
  0.7705  0.9436  2.3664  2.1024  2.1024

 Free energy of the ion-electron system (eV)
  ---------------------------------------------------
  alpha Z        PSCENC =       147.92401758
  Ewald energy   TEWEN  =     -1800.82043417
  -Hartree energ DENC   =      -306.81969660
  -exchange      EXHF   =         0.00000000
  -V(xc)+E(xc)   XCENC  =        73.68360833
  PAW double counting   =      5264.98400362    -5405.69250926
  entropy T*S    EENTRO =         0.00000000
  eigenvalues    EBANDS =       252.55922896
  atomic energy  EATOM  =      1800.64518309
  Solvation  Ediel_sol  =         0.00000000
  ---------------------------------------------------
  free energy    TOTEN  =        26.46340155 eV

  energy without entropy =       26.46340155  energy(sigma->0) =       26.46340155


--------------------------------------------------------------------------------------------------------




----------------------------------------- Iteration    1(  11)  ---------------------------------------


    POTLOK:  cpu time    0.0041: real time    0.0041
    SETDIJ:  cpu time    0.0025: real time    0.0025
     EDDAV:  cpu time    0.0732: real time    0.0734
 BZINTS: Fermi energy: 28.352348; 18.000000 electrons
         Band energy: 252.611177;  BLOECHL correction:  0.000000
       DOS:  cpu time    0.0005: real time    0.0005
    CHARGE:  cpu time    0.0037: real time    0.0037
    MIXING:  cpu time    0.0003: real time    0.0003
    --------------------------------------------
      LOOP:  cpu time    0.0845: real time    0.0848

 eigenvalue-minimisations  :  1405
 total energy-change (2. order) : 0.1122334E-03  (-0.6706553E-04)
 number of electron      17.9999870 magnetization 
 augmentation part        5.5998610 magnetization 

 Broyden mixing:
  rms(total) = 0.65778E-02    rms(broyden)= 0.65768E-02
  rms(prec ) = 0.90210E-02
  weight for this iteration     100.00

 eigenvalues of (default mixing * dielectric matrix)
  average eigenvalue GAMMA=   1.5514
  2.2609  2.2376  2.2376  0.7671  0.9026  0.9026

 Free energy of the ion-electron system (eV)
  ---------------------------------------------------
  alpha Z        PSCENC =       147.92401758
  Ewald energy   TEWEN  =     -1800.82043417
  -Hartree energ DENC   =      -307.02896259
  -exchange      EXHF   =         0.00000000
  -V(xc)+E(xc)   XCENC  =        73.69466400
  PAW double counting   =      5249.55791986    -5390.12005119
  entropy T*S    EENTRO =         0.00000000
  eigenvalues    EBANDS =       252.61117721
  atomic energy  EATOM  =      1800.64518309
  Solvation  Ediel_sol  =         0.00000000
  ---------------------------------------------------
  free energy    TOTEN  =        26.46351379 eV

  energy without entropy =       26.46351379  energy(sigma->0) =       26.46351379


--------------------------------------------------------------------------------------------------------




----------------------------------------- Iteration    1(  12)  ---------------------------------------


    POTLOK:  cpu time    0.0041: real time    0.0041
    SETDIJ:  cpu time    0.0025: real time    0.0025
     EDDAV:  cpu time    0.0562: real time    0.0563
 BZINTS: Fermi energy: 28.350635; 18.000000 electrons
         Band energy: 252.587081;  BLOECHL correction:  0.000000
       DOS:  cpu time    0.0005: real time    0.0005
    CHARGE:  cpu time    0.0038: real time    0.0038
    MIXING:  cpu time    0.0003: real time    0.0003
    --------------------------------------------
      LOOP:  cpu time    0.0675: real time    0.0677

 eigenvalue-minimisations  :  1050
 total energy-change (2. order) : 0.1122386E-05  (-0.6298197E-05)
 number of electron      17.9999870 magnetization 
 augmentation part        5.5997500 magnetization 

 Broyden mixing:
  rms(total) = 0.19920E-02    rms(broyden)= 0.19912E-02
  rms(prec ) = 0.28120E-02
  weight for this iteration     100.00

 eigenvalues of (default mixing * dielectric matrix)
  average eigenvalue GAMMA=   1.3772
  2.2677  2.2133  2.2133  0.8887  0.8106  0.7314  0.5156

 Free energy of the ion-electron system (eV)
  ---------------------------------------------------
  alpha Z        PSCENC =       147.92401758
  Ewald energy   TEWEN  =     -1800.82043417
  -Hartree energ DENC   =      -306.97929630
  -exchange      EXHF   =         0.00000000
  -V(xc)+E(xc)   XCENC  =        73.69327308
  PAW double counting   =      5256.10237876    -5396.68868841
  entropy T*S    EENTRO =         0.00000000
  eigenvalues    EBANDS =       252.58708128
  atomic energy  EATOM  =      1800.64518309
  Solvation  Ediel_sol  =         0.00000000
  ---------------------------------------------------
  free energy    TOTEN  =        26.46351491 eV

  energy without entropy =       26.46351491  energy(sigma->0) =       26.46351491


--------------------------------------------------------------------------------------------------------




----------------------------------------- Iteration    1(  13)  ---------------------------------------


    POTLOK:  cpu time    0.0041: real time    0.0041
    SETDIJ:  cpu time    0.0025: real time    0.0025
     EDDAV:  cpu time    0.0440: real time    0.0442
 BZINTS: Fermi energy: 28.350980; 18.000000 electrons
         Band energy: 252.589651;  BLOECHL correction:  0.000000
       DOS:  cpu time    0.0005: real time    0.0005
    --------------------------------------------
      LOOP:  cpu time    0.0513: real time    0.0515

 eigenvalue-minimisations  :   748
 total energy-change (2. order) :-0.6175978E-06  (-0.6849548E-07)
 number of electron      17.9999870 magnetization 
 augmentation part        5.5997500 magnetization 

 Free energy of the ion-electron system (eV)
  ---------------------------------------------------
  alpha Z        PSCENC =       147.92401758
  Ewald energy   TEWEN  =     -1800.82043417
  -Hartree energ DENC   =      -306.97710964
  -exchange      EXHF   =         0.00000000
  -V(xc)+E(xc)   XCENC  =        73.69322173
  PAW double counting   =      5255.72734381    -5396.31835880
  entropy T*S    EENTRO =         0.00000000
  eigenvalues    EBANDS =       252.58965070
  atomic energy  EATOM  =      1800.64518309
  Solvation  Ediel_sol  =         0.00000000
  ---------------------------------------------------
  free energy    TOTEN  =        26.46351429 eV

  energy without entropy =       26.46351429  energy(sigma->0) =       26.46351429


--------------------------------------------------------------------------------------------------------




 average (electrostatic) potential at core
  the test charge radii are     0.9430  0.9406
  (the norm of the test charge is              1.0000)
       1 -52.4688       2 -75.8189
 
 
 
 E-fermi :  28.3510     XC(G=0): -16.6030     alpha+bet :-29.4846


 k-point     1 :       0.0000    0.0000    0.0000
  band No.  band energies     occupation 
      1      -3.0332      2.00000
      2      10.2069      2.00000
      3      10.2069      2.00000
      4      10.2070      2.00000
      5      14.9733      2.00000
      6      14.9733      2.00000
      7      28.2647      2.00000
      8      28.2647      2.00000
      9      28.2648      2.00000
     10      32.6445      0.00000
     11      33.2231      0.00000
     12      33.2231      0.00000
     13      33.2231      0.00000

 k-point     2 :       0.1111    0.0000    0.0000
  band No.  band energies     occupation 
      1      -2.6635      2.00000
      2       9.9747      2.00000
      3      10.3427      2.00000
      4      10.3427      2.00000
      5      14.8949      2.00000
      6      14.8949      2.00000
      7      26.1507      2.00000
      8      27.8817      2.00000
      9      27.8817      2.00000
     10      32.9653      0.00000
     11      33.7256      0.00000
     12      33.7257      0.00000
     13      34.0155      0.00000

 k-point     3 :       0.2222    0.0000    0.0000
  band No.  band energies     occupation 
      1      -1.6252      2.00000
      2       9.3676      2.00000
      3      10.6395      2.00000
      4      10.6395      2.00000
      5      14.8430      2.00000
      6      14.8430      2.00000
      7      22.5174      2.00000
      8      26.8727      2.00000
      9      26.8728      2.00000
     10      32.3642      0.00000
     11      34.3340      0.00000
     12      34.3342      0.00000
     13      35.8377      0.00000

 k-point     4 :       0.3333    0.0000    0.0000
  band No.  band energies     occupation 
      1      -0.1817      2.00000
      2       8.5985      2.00000
      3      10.8399      2.00000
      4      10.8399      2.00000
      5      15.1249      2.00000
      6      15.1250      2.00000
      7      19.2387      2.00000
      8      25.5100      2.00000
      9      25.5100      2.00000
     10      31.2726      0.00000
     11      34.0216      0.00000
     12      34.0218      0.00000
     13      37.9593      0.00000

 k-point     5 :       0.4444    0.0000    0.0000
  band No.  band energies     occupation 
      1       1.0446      2.00000
      2       7.9471      2.00000
      3      10.8833      2.00000
      4      10.8833      2.00000
      5      15.5800      2.00000
      6      15.5800      2.00000
      7      17.2705      2.00000
      8      24.4253      2.00000
      9      24.4253      2.00000
     10      30.5848      0.00000
     11      33.6764      0.00000
     12      33.6766      0.00000
     13      39.4156      0.00000

 k-point     6 :       0.1111    0.1111    0.0000
  band No.  band energies     occupation 
      1      -2.5400      2.00000
      2       9.8697      2.00000
      3      10.4177      2.00000
      4      10.4178      2.00000
      5      14.5644      2.00000
      6      15.1435      2.00000
      7      26.6865      2.00000
      8      26.6865      2.00000
      9      27.6931      2.00000
     10      31.9157      0.00000
     11      33.8083      0.00000
     12      34.6848      0.00000
     13      34.6848      0.00000

 k-point     7 :       0.2222    0.1111    0.0000
  band No.  band energies     occupation 
      1      -1.7237      2.00000
      2       9.4131      2.00000
      3      10.6657      2.00000
      4      10.7023      2.00000
      5      14.2590      2.00000
      6      15.2745      2.00000
      7      23.7082      2.00000
      8      25.4024      2.00000
      9      27.3157      2.00000
     10      31.8044      0.00000
     11      33.8633      0.00000
     12      35.4625      0.00000
     13      35.6826      0.00000

 k-point     8 :       0.3333    0.1111    0.0000
  band No.  band energies     occupation 
      1      -0.4009      2.00000
      2       8.7993      2.00000
      3      10.8083      2.00000
      4      10.9738      2.00000
      5      14.4103      2.00000
      6      15.4984      2.00000
      7      20.1644      2.00000
      8      24.2385      2.00000
      9      25.9748      2.00000
     10      31.4748      0.00000
     11      33.7823      0.00000
     12      35.4356      0.00000
     13      37.2647      0.00000

 k-point     9 :       0.4444    0.1111    0.0000
  band No.  band energies     occupation 
      1       0.9516      2.00000
      2       8.2150      2.00000
      3      10.7626      2.00000
      4      11.0867      2.00000
      5      15.0880      2.00000
      6      15.7366      2.00000
      7      17.5850      2.00000
      8      23.5541      2.00000
      9      24.3285      2.00000
     10      30.5578      0.00000
     11      34.2354      0.00000
     12      34.6771      0.00000
     13      39.8655      0.00000

 k-point    10 :      -0.4444    0.1111    0.0000
  band No.  band energies     occupation 
      1       1.4264      2.00000
      2       8.0381      2.00000
      3      10.6812      2.00000
      4      11.1153      2.00000
      5      15.4888      2.00000
      6      15.6248      2.00000
      7      16.9854      2.00000
      8      23.1896      2.00000
      9      23.9917      2.00000
     10      30.3203      0.00000
     11      34.2196      0.00000
     12      34.5667      0.00000
     13      40.8341      0.00000

 k-point    11 :      -0.3333    0.1111    0.0000
  band No.  band energies     occupation 
      1       0.5386      2.00000
      2       8.4724      2.00000
      3      10.6401      2.00000
      4      11.0899      2.00000
      5      14.8185      2.00000
      6      15.6913      2.00000
      7      18.3451      2.00000
      8      23.1957      2.00000
      9      25.4790      2.00000
     10      30.8737      0.00000
     11      34.1463      0.00000
     12      34.8230      0.00000
     13      39.2984      0.00000

 k-point    12 :      -0.2222    0.1111    0.0000
  band No.  band energies     occupation 
      1      -0.8836      2.00000
      2       9.0994      2.00000
      3      10.6237      2.00000
      4      10.8964      2.00000
      5      14.4155      2.00000
      6      15.3429      2.00000
      7      21.3024      2.00000
      8      24.0472      2.00000
      9      27.2141      2.00000
     10      32.2034      0.00000
     11      34.2856      0.00000
     12      34.8511      0.00000
     13      36.6325      0.00000

 k-point    13 :      -0.1111    0.1111    0.0000
  band No.  band energies     occupation 
      1      -2.0699      2.00000
      2       9.6496      2.00000
      3      10.4991      2.00000
      4      10.5544      2.00000
      5      14.5433      2.00000
      6      15.0856      2.00000
      7      24.7909      2.00000
      8      25.2715      2.00000
      9      28.2401      2.00000
     10      33.5100      0.00000
     11      33.8190      0.00000
     12      34.2030      0.00000
     13      34.7049      0.00000

 k-point    14 :       0.2222    0.2222    0.0000
  band No.  band energies     occupation 
      1      -1.1556      2.00000
      2       9.0139      2.00000
      3      11.0446      2.00000
      4      11.0446      2.00000
      5      13.6689      2.00000
      6      15.5927      2.00000
      7      23.7990      2.00000
      8      23.7990      2.00000
      9      26.1272      2.00000
     10      29.5467      0.00000
     11      33.2561      0.00000
     12      37.6096      0.00000
     13      37.6096      0.00000

 k-point    15 :       0.3333    0.2222    0.0000
  band No.  band energies     occupation 
      1      -0.0515      2.00000
      2       8.5081      2.00000
      3      11.2515      2.00000
      4      11.4454      2.00000
      5      13.6160      2.00000
      6      15.8425      2.00000
      7      20.9866      2.00000
      8      22.4999      2.00000
      9      24.6309      2.00000
     10      30.1114      0.00000
     11      32.7388      0.00000
     12      37.9712      0.00000
     13      38.6286      0.00000

 k-point    16 :       0.4444    0.2222    0.0000
  band No.  band energies     occupation 
      1       1.2262      2.00000
      2       8.1728      2.00000
      3      11.0121      2.00000
      4      11.6770      2.00000
      5      14.3906      2.00000
      6      15.9436      2.00000
      7      17.9034      2.00000
      8      21.9127      2.00000
      9      23.0408      2.00000
     10      30.3603      0.00000
     11      34.0461      0.00000
     12      36.8064      0.00000
     13      39.4032      0.00000

 k-point    17 :      -0.4444    0.2222    0.0000
  band No.  band energies     occupation 
      1       1.9519      2.00000
      2       8.2490      2.00000
      3      10.6230      2.00000
      4      11.7203      2.00000
      5      14.8711      2.00000
      6      15.5030      2.00000
      7      16.9809      2.00000
      8      21.5449      2.00000
      9      22.5474      2.00000
     10      30.0840      0.00000
     11      35.8419      0.00000
     12      36.0031      0.00000
     13      40.4612      0.00000

 k-point    18 :      -0.3333    0.2222    0.0000
  band No.  band energies     occupation 
      1       1.5120      2.00000
      2       8.7011      2.00000
      3      10.1642      2.00000
      4      11.6247      2.00000
      5      14.7234      2.00000
      6      15.3933      2.00000
      7      18.0533      2.00000
      8      20.7094      2.00000
      9      24.1678      2.00000
     10      30.2709      0.00000
     11      35.3091      0.00000
     12      36.8967      0.00000
     13      40.0696      0.00000

 k-point    19 :      -0.2222    0.2222    0.0000
  band No.  band energies     occupation 
      1       0.3141      2.00000
      2       8.9319      2.00000
      3      10.3041      2.00000
      4      11.3272      2.00000
      5      14.2879      2.00000
      6      15.7536      2.00000
      7      19.7121      2.00000
      8      21.4651      2.00000
      9      26.0182      2.00000
     10      31.1199      0.00000
     11      34.9729      0.00000
     12      36.4595      0.00000
     13      37.7922      0.00000

 k-point    20 :       0.3333    0.3333    0.0000
  band No.  band energies     occupation 
      1       0.7842      2.00000
      2       7.9242      2.00000
      3      12.0542      2.00000
      4      12.0543      2.00000
      5      13.0242      2.00000
      6      16.1379      2.00000
      7      20.9293      2.00000
      8      20.9293      2.00000
      9      22.3172      2.00000
     10      29.2032      0.00000
     11      31.8416      0.00000
     12      40.9089      0.00000
     13      41.3460      0.00000

 k-point    21 :       0.4444    0.3333    0.0000
  band No.  band energies     occupation 
      1       1.8176      2.00000
      2       7.5314      2.00000
      3      12.0351      2.00000
      4      12.4788      2.00000
      5      13.6377      2.00000
      6      16.2203      2.00000
      7      18.3489      2.00000
      8      20.1329      2.00000
      9      21.1956      2.00000
     10      30.0035      0.00000
     11      31.8069      0.00000
     12      39.2951      0.00000
     13      42.4119      0.00000

 k-point    22 :      -0.4444    0.3333    0.0000
  band No.  band energies     occupation 
      1       2.4817      2.00000
      2       7.6949      2.00000
      3      11.8040      2.00000
      4      12.5257      2.00000
      5      13.8655      2.00000
      6      15.7066      2.00000
      7      16.9413      2.00000
      8      20.2724      2.00000
      9      20.7631      2.00000
     10      30.0985      0.00000
     11      34.0542      0.00000
     12      37.8433      0.00000
     13      42.0797      0.00000

 k-point    23 :      -0.3333    0.3333    0.0000
  band No.  band energies     occupation 
      1       2.3141      2.00000
      2       8.3988      2.00000
      3      10.7160      2.00000
      4      12.1957      2.00000
      5      14.1770      2.00000
      6      15.0275      2.00000
      7      17.9688      2.00000
      8      19.4937      2.00000
      9      22.3641      2.00000
     10      29.9984      0.00000
     11      36.5853      0.00000
     12      37.0801      0.00000
     13      40.4435      0.00000

 k-point    24 :       0.4444    0.4444    0.0000
  band No.  band energies     occupation 
      1       2.4861      2.00000
      2       6.9596      2.00000
      3      13.1168      2.00000
      4      13.1168      2.00000
      5      13.1282      2.00000
      6      16.5190      2.00000
      7      18.8500      2.00000
      8      18.8500      2.00000
      9      19.0109      2.00000
     10      29.8619      0.00000
     11      30.7861      0.00000
     12      40.4769      0.00000
     13      45.4647      0.00000

 k-point    25 :      -0.4444    0.4444    0.0000
  band No.  band energies     occupation 
      1       2.7670      2.00000
      2       7.0054      2.00000
      3      13.0677      2.00000
      4      13.1388      2.00000
      5      13.3430      2.00000
      6      16.1876      2.00000
      7      17.1909      2.00000
      8      19.2096      2.00000
      9      19.5106      2.00000
     10      30.2531      0.00000
     11      31.3549      0.00000
     12      39.5548      0.00000
     13      45.1624      0.00000

 k-point    26 :       0.3333    0.2222    0.1111
  band No.  band energies     occupation 
      1      -0.7577      2.00000
      2       8.9920      2.00000
      3      10.7582      2.00000
      4      11.0980      2.00000
      5      14.0067      2.00000
      6      15.5584      2.00000
      7      22.0334      2.00000
      8      23.0044      2.00000
      9      26.4913      2.00000
     10      31.9525      0.00000
     11      33.0066      0.00000
     12      35.7643      0.00000
     13      37.9544      0.00000

 k-point    27 :       0.4444    0.2222    0.1111
  band No.  band energies     occupation 
      1       0.5613      2.00000
      2       8.6048      2.00000
      3      10.5889      2.00000
      4      11.4528      2.00000
      5      14.3017      2.00000
      6      15.8131      2.00000
      7      19.0385      2.00000
      8      21.8969      2.00000
      9      24.9217      2.00000
     10      31.4606      0.00000
     11      33.5600      0.00000
     12      36.2078      0.00000
     13      38.8284      0.00000

 k-point    28 :      -0.4444    0.2222    0.1111
  band No.  band energies     occupation 
      1       1.6375      2.00000
      2       8.3339      2.00000
      3      10.4525      2.00000
      4      11.5770      2.00000
      5      14.9428      2.00000
      6      15.6095      2.00000
      7      17.2132      2.00000
      8      21.7759      2.00000
      9      23.3279      2.00000
     10      30.6725      0.00000
     11      34.1862      0.00000
     12      36.5134      0.00000
     13      40.3678      0.00000

 k-point    29 :       0.4444    0.3333    0.1111
  band No.  band energies     occupation 
      1       1.0380      2.00000
      2       8.1134      2.00000
      3      11.2071      2.00000
      4      12.0664      2.00000
      5      13.7731      2.00000
      6      16.0135      2.00000
      7      19.3398      2.00000
      8      20.6003      2.00000
      9      23.1882      2.00000
     10      30.9195      0.00000
     11      32.2692      0.00000
     12      37.5188      0.00000
     13      41.4156      0.00000

 k-point    30 :      -0.4444    0.3333    0.1111
  band No.  band energies     occupation 
      1       2.0483      2.00000
      2       8.0593      2.00000
      3      10.9809      2.00000
      4      12.4349      2.00000
      5      14.1993      2.00000
      6      15.6157      2.00000
      7      17.4851      2.00000
      8      20.1175      2.00000
      9      22.0008      2.00000
     10      31.1243      0.00000
     11      33.8837      0.00000
     12      36.8825      0.00000
     13      40.9269      0.00000

 k-point    31 :      -0.3333    0.3333    0.1111
  band No.  band energies     occupation 
      1       2.3181      2.00000
      2       8.3905      2.00000
      3      10.5944      2.00000
      4      12.4024      2.00000
      5      14.0618      2.00000
      6      15.3382      2.00000
      7      17.4064      2.00000
      8      19.9534      2.00000
      9      22.0052      2.00000
     10      30.9667      0.00000
     11      35.0968      0.00000
     12      37.7601      0.00000
     13      39.2615      0.00000

 k-point    32 :      -0.2222    0.3333    0.1111
  band No.  band energies     occupation 
      1       1.6609      2.00000
      2       8.6393      2.00000
      3      10.2459      2.00000
      4      12.0427      2.00000
      5      14.3891      2.00000
      6      15.4070      2.00000
      7      18.4415      2.00000
      8      19.7948      2.00000
      9      23.4287      2.00000
     10      31.2947      0.00000
     11      34.3045      0.00000
     12      37.1702      0.00000
     13      39.8182      0.00000

 k-point    33 :      -0.4444    0.4444    0.1111
  band No.  band energies     occupation 
      1       2.5276      2.00000
      2       7.3558      2.00000
      3      12.1723      2.00000
      4      13.1620      2.00000
      5      13.6198      2.00000
      6      15.7853      2.00000
      7      17.6340      2.00000
      8      18.8895      2.00000
      9      20.6355      2.00000
     10      30.9196      0.00000
     11      31.7851      0.00000
     12      38.6493      0.00000
     13      43.2543      0.00000

 k-point    34 :      -0.3333    0.4444    0.1111
  band No.  band energies     occupation 
      1       2.7047      2.00000
      2       7.7806      2.00000
      3      11.8646      2.00000
      4      13.0526      2.00000
      5      13.3044      2.00000
      6      15.3699      2.00000
      7      17.2223      2.00000
      8      19.1611      2.00000
      9      20.8598      2.00000
     10      31.0220      0.00000
     11      34.1748      0.00000
     12      37.3535      0.00000
     13      41.0518      0.00000

 k-point    35 :      -0.3333    0.4444    0.2222
  band No.  band energies     occupation 
      1       2.6124      2.00000
      2       8.1759      2.00000
      3      11.1343      2.00000
      4      13.1939      2.00000
      5      13.3675      2.00000
      6      15.1715      2.00000
      7      17.4706      2.00000
      8      18.9600      2.00000
      9      21.2582      2.00000
     10      32.1642      0.00000
     11      34.7163      0.00000
     12      36.6991      0.00000
     13      39.0725      0.00000


--------------------------------------------------------------------------------------------------------


 soft charge-density along one line, spin component           1
         0         1         2         3         4         5         6         7         8         9
 total charge-density along one line
 
 pseudopotential strength for first ion, spin component:           1
  5.590  -0.000   0.000  -0.000   0.000 -11.144   0.000  -0.000
 -0.000   5.590  -0.000  -0.000   0.000   0.000 -11.144   0.000
  0.000  -0.000   5.783  -0.000  -0.000  -0.000   0.000 -11.262
 -0.000  -0.000  -0.000   5.590  -0.000   0.000   0.000   0.000
  0.000   0.000  -0.000  -0.000   5.783  -0.000  -0.000   0.000
-11.144   0.000  -0.000   0.000  -0.000  15.034  -0.000   0.000
  0.000 -11.144   0.000   0.000  -0.000  -0.000  15.034  -0.000
 -0.000   0.000 -11.262   0.000   0.000   0.000  -0.000  15.060
  0.000   0.000   0.000 -11.144   0.000  -0.000  -0.000  -0.000
 -0.000  -0.000   0.000   0.000 -11.262   0.000   0.000  -0.000
  0.000   0.000   0.000   0.000  -0.000   0.000   0.000   0.000
  0.000   0.000   0.000   0.000  -0.000   0.000   0.000   0.000
  0.000   0.000   0.000   0.010   0.000   0.000   0.000   0.000
  0.010   0.000  -0.000   0.000  -0.000   0.079   0.000  -0.000
  0.000   0.010   0.000   0.000  -0.000   0.000   0.079   0.000
  0.000   0.000  -0.000  -0.009  -0.000   0.000   0.000   0.000
 -0.009   0.000   0.000   0.000   0.000   0.132   0.000  -0.000
  0.000  -0.009  -0.000   0.000   0.000   0.000   0.132   0.000
 total augmentation occupancy for first ion, spin component:           1
  2.281  -0.000  -0.000   0.000  -0.000   0.418   0.000   0.000  -0.000   0.000   0.000   0.000   0.000   0.167   0.000   0.000
  0.000   2.281  -0.000  -0.000  -0.000   0.000   0.418   0.000   0.000  -0.000   0.000   0.000  -0.000  -0.000   0.167   0.000
  0.000   0.000   2.149   0.000   0.000   0.000   0.000   0.218  -0.000   0.000  -0.000   0.000   0.000   0.000   0.000  -0.000
  0.000   0.000   0.000   2.281   0.000  -0.000   0.000   0.000   0.418  -0.000  -0.000   0.000   0.167  -0.000   0.000   0.043
  0.000  -0.000   0.000   0.000   2.149   0.000  -0.000   0.000  -0.000   0.218   0.000   0.000   0.000  -0.000   0.000   0.000
  0.418   0.000   0.000   0.000   0.000   0.449  -0.000   0.000   0.000   0.000   0.000   0.000  -0.000   0.449  -0.000  -0.000
  0.000   0.418   0.000  -0.000  -0.000  -0.000   0.449   0.000   0.000   0.000  -0.000   0.000   0.000   0.000   0.449  -0.000
  0.000  -0.000   0.218   0.000   0.000  -0.000   0.000   0.257  -0.000   0.000  -0.000   0.000   0.000   0.000  -0.000  -0.000
  0.000   0.000   0.000   0.418   0.000  -0.000   0.000   0.000   0.449   0.000   0.000  -0.000   0.449   0.000   0.000   0.004
  0.000   0.000   0.000  -0.000   0.218  -0.000   0.000   0.000   0.000   0.257   0.000   0.000   0.000   0.000  -0.000   0.000
  0.000   0.000  -0.000  -0.000   0.000  -0.000   0.000  -0.000  -0.000   0.000   6.209  -1.106   0.000   0.000   0.000   0.000
  0.000   0.000   0.000   0.000   0.000   0.000   0.000  -0.000   0.000  -0.000  -1.106   0.347   0.000   0.000   0.000   0.000
  0.000  -0.000  -0.000   0.167  -0.000  -0.000   0.000   0.000   0.449   0.000   0.000   0.000   1.509   0.000   0.000  -0.058
  0.167  -0.000   0.000  -0.000   0.000   0.449  -0.000  -0.000   0.000  -0.000   0.000   0.000   0.000   1.509   0.000   0.000
  0.000   0.167  -0.000   0.000  -0.000   0.000   0.449  -0.000   0.000   0.000  -0.000   0.000   0.000   0.000   1.509  -0.000
 -0.000   0.000  -0.000   0.043   0.000   0.000   0.000   0.000   0.004  -0.000   0.000   0.000  -0.058   0.000   0.000   0.033
  0.043   0.000  -0.000   0.000   0.000   0.004   0.000   0.000   0.000  -0.000   0.000   0.000   0.000  -0.058   0.000   0.000
 -0.000   0.043   0.000   0.000  -0.000   0.000   0.004   0.000  -0.000   0.000   0.000  -0.000   0.000   0.000  -0.058   0.000


------------------------ aborting loop because EDIFF is reached ----------------------------------------


    CHARGE:  cpu time    0.0038: real time    0.0038
    FORLOC:  cpu time    0.0005: real time    0.0005
    FORNL :  cpu time    0.0154: real time    0.0154
    STRESS:  cpu time    0.0380: real time    0.0381
    FORCOR:  cpu time    0.0048: real time    0.0048
    FORHAR:  cpu time    0.0012: real time    0.0012
    MIXING:  cpu time    0.0003: real time    0.0003
    OFIELD:  cpu time    0.0000: real time    0.0000

  FORCE on cell =-STRESS in cart. coord.  units (eV):
  Direction    XX          YY          ZZ          XY          YZ          ZX
  --------------------------------------------------------------------------------------
  Alpha Z   147.92402   147.92402   147.92402
  Ewald    -600.27373  -600.27373  -600.27373    -0.00000    -0.00000     0.00000
  Hartree   102.31869   102.31869   102.31869     0.00000     0.00000     0.00000
  E(xc)     -99.60768   -99.60768   -99.60768     0.00002     0.00002     0.00002
  Local      66.46377    66.46377    66.46377     0.00080     0.00080     0.00080
  n-local   133.69677   133.77816   136.56152    -0.22422     0.81120    -0.94906
  augment    71.14730    71.14730    71.14730    -0.00075    -0.00075    -0.00075
  Kinetic   263.39869   257.06401   268.92799     5.96347    -2.27285     2.40365
  Fock        0.00000     0.00000     0.00000     0.00000     0.00000     0.00000
  -------------------------------------------------------------------------------------
  Total      85.78141    85.78141    85.78141     0.00000     0.00000    -0.00000
  in kB   11685.36196 11685.36196 11685.36196     0.00000     0.00000    -0.00000
  external pressure =    11685.36 kB  Pullay stress =        0.00 kB


 VOLUME and BASIS-vectors are now :
 -----------------------------------------------------------------------------
  energy-cutoff  :      295.45
  volume of cell :       11.76
      direct lattice vectors                 reciprocal lattice vectors
     0.000000000  1.805000000  1.805000000    -0.277008310  0.277008310  0.277008310
     1.805000000  0.000000000  1.805000000     0.277008310 -0.277008310  0.277008310
     1.805000000  1.805000000  0.000000000     0.277008310  0.277008310 -0.277008310

  length of vectors
     2.552655480  2.552655480  2.552655480     0.479792467  0.479792467  0.479792467


 FORCES acting on ions
    electron-ion (+dipol)            ewald-force                    non-local-force                 convergence-correction
 -----------------------------------------------------------------------------------------------
   0.176E-04 0.176E-04 0.488E-05   0.354E-13 0.167E-13 0.201E-13   0.111E-15 0.000E+00 0.000E+00   0.295E-05 0.295E-05 0.295E-05
   -.210E-04 -.210E-04 -.573E-04   -.342E-13 -.172E-13 -.252E-13   -.555E-16 -.278E-16 0.763E-16   -.858E-06 -.858E-06 -.858E-06
 -----------------------------------------------------------------------------------------------
   -.342E-05 -.342E-05 -.524E-04   0.119E-14 -.480E-15 -.512E-14   0.555E-16 -.278E-16 0.763E-16   0.210E-05 0.210E-05 0.210E-05
 
 
 POSITION                                       TOTAL-FORCE (eV/Angst)
 -----------------------------------------------------------------------------------
      0.00000      0.00000      0.00000        -0.000000     -0.000000     -0.000000
      0.90250      0.90250      0.90250         0.000000      0.000000      0.000000
 -----------------------------------------------------------------------------------
    total drift:                               -0.000001     -0.000001     -0.000050


--------------------------------------------------------------------------------------------------------



  FREE ENERGIE OF THE ION-ELECTRON SYSTEM (eV)
  ---------------------------------------------------
  free  energy   TOTEN  =        26.46351429 eV

  energy  without entropy=       26.46351429  energy(sigma->0) =       26.46351429
 


--------------------------------------------------------------------------------------------------------


    POTLOK:  cpu time    0.0068: real time    0.0068


--------------------------------------------------------------------------------------------------------


 writing wavefunctions
     LOOP+:  cpu time    0.9854: real time    0.9885
    4ORBIT:  cpu time    0.0000: real time    0.0000
 BZINTS: Fermi energy: 28.350980; 18.000000 electrons
         Band energy: 252.589651;  BLOECHL correction:  0.000000

 total amount of memory used by VASP on root node    34119. kBytes
========================================================================

   base      :      30000. kBytes
   nonl-proj :       1456. kBytes
   fftplans  :        504. kBytes
   grid      :        891. kBytes
   one-center:         31. kBytes
   wavefun   :       1237. kBytes
 
  
  
 General timing and accounting informations for this job:
 ========================================================
  
                  Total CPU time used (sec):        1.134
                            User time (sec):        1.111
                          System time (sec):        0.024
                         Elapsed time (sec):        1.142
  
                   Maximum memory used (kb):       55680.
                   Average memory used (kb):           0.
  
                          Minor page faults:         6130
                          Major page faults:            0
                 Voluntary context switches:           10
