<?xml version="1.0" encoding="ISO-8859-1"?>
<modeling>
 <generator>
  <i name="program" type="string">vasp </i>
  <i name="version" type="string">5.4.1  </i>
  <i name="subversion" type="string">24Jun15 (build Jan 09 2018 18:51:36) complex                          parallel </i>
  <i name="platform" type="string">IntelFC </i>
  <i name="date" type="string">2019 03 26 </i>
  <i name="time" type="string">15:34:02 </i>
 </generator>
 <incar>
  <i type="string" name="PREC">normal</i>
  <i type="int" name="ISPIN">     1</i>
  <i type="int" name="ICHARG">    11</i>
  <i name="EDIFF">      0.00000100</i>
  <i type="logical" name="LREAL"> F  </i>
  <i type="int" name="ISMEAR">     0</i>
  <i name="SIGMA">      0.02000000</i>
  <i type="int" name="LMAXMIX">     6</i>
  <i type="logical" name="LORBIT"> F  </i>
  <v type="int" name="KPOINT_BSE">    -1     0     0     0</v>
 </incar>
 <kpoints>
  <generation param="listgenerated">
   <i name="divisions" type="int">      20 </i>
   <v>       0.00000000       0.00000000       0.50000000 </v>
   <v>       0.50000000       0.50000000       0.50000000 </v>
   <v>       0.50000000       0.50000000       0.00000000 </v>
   <v>       0.00000000       0.00000000       0.00000000 </v>
   <v>       0.00000000       0.00000000       0.50000000 </v>
   <v>       0.00000000       0.50000000       0.50000000 </v>
   <v>       0.00000000       0.50000000       0.00000000 </v>
   <v>       0.00000000       0.00000000       0.00000000 </v>
  </generation>
  <varray name="kpointlist" >
   <v>       0.00000000       0.00000000       0.50000000 </v>
   <v>       0.02631579       0.02631579       0.50000000 </v>
   <v>       0.05263158       0.05263158       0.50000000 </v>
   <v>       0.07894737       0.07894737       0.50000000 </v>
   <v>       0.10526316       0.10526316       0.50000000 </v>
   <v>       0.13157895       0.13157895       0.50000000 </v>
   <v>       0.15789474       0.15789474       0.50000000 </v>
   <v>       0.18421053       0.18421053       0.50000000 </v>
   <v>       0.21052632       0.21052632       0.50000000 </v>
   <v>       0.23684211       0.23684211       0.50000000 </v>
   <v>       0.26315789       0.26315789       0.50000000 </v>
   <v>       0.28947368       0.28947368       0.50000000 </v>
   <v>       0.31578947       0.31578947       0.50000000 </v>
   <v>       0.34210526       0.34210526       0.50000000 </v>
   <v>       0.36842105       0.36842105       0.50000000 </v>
   <v>       0.39473684       0.39473684       0.50000000 </v>
   <v>       0.42105263       0.42105263       0.50000000 </v>
   <v>       0.44736842       0.44736842       0.50000000 </v>
   <v>       0.47368421       0.47368421       0.50000000 </v>
   <v>       0.50000000       0.50000000       0.50000000 </v>
   <v>       0.50000000       0.50000000       0.50000000 </v>
   <v>       0.50000000       0.50000000       0.47368421 </v>
   <v>       0.50000000       0.50000000       0.44736842 </v>
   <v>       0.50000000       0.50000000       0.42105263 </v>
   <v>       0.50000000       0.50000000       0.39473684 </v>
   <v>       0.50000000       0.50000000       0.36842105 </v>
   <v>       0.50000000       0.50000000       0.34210526 </v>
   <v>       0.50000000       0.50000000       0.31578947 </v>
   <v>       0.50000000       0.50000000       0.28947368 </v>
   <v>       0.50000000       0.50000000       0.26315789 </v>
   <v>       0.50000000       0.50000000       0.23684211 </v>
   <v>       0.50000000       0.50000000       0.21052632 </v>
   <v>       0.50000000       0.50000000       0.18421053 </v>
   <v>       0.50000000       0.50000000       0.15789474 </v>
   <v>       0.50000000       0.50000000       0.13157895 </v>
   <v>       0.50000000       0.50000000       0.10526316 </v>
   <v>       0.50000000       0.50000000       0.07894737 </v>
   <v>       0.50000000       0.50000000       0.05263158 </v>
   <v>       0.50000000       0.50000000       0.02631579 </v>
   <v>       0.50000000       0.50000000       0.00000000 </v>
   <v>       0.50000000       0.50000000       0.00000000 </v>
   <v>       0.47368421       0.47368421       0.00000000 </v>
   <v>       0.44736842       0.44736842       0.00000000 </v>
   <v>       0.42105263       0.42105263       0.00000000 </v>
   <v>       0.39473684       0.39473684       0.00000000 </v>
   <v>       0.36842105       0.36842105       0.00000000 </v>
   <v>       0.34210526       0.34210526       0.00000000 </v>
   <v>       0.31578947       0.31578947       0.00000000 </v>
   <v>       0.28947368       0.28947368       0.00000000 </v>
   <v>       0.26315789       0.26315789       0.00000000 </v>
   <v>       0.23684211       0.23684211       0.00000000 </v>
   <v>       0.21052632       0.21052632       0.00000000 </v>
   <v>       0.18421053       0.18421053       0.00000000 </v>
   <v>       0.15789474       0.15789474       0.00000000 </v>
   <v>       0.13157895       0.13157895       0.00000000 </v>
   <v>       0.10526316       0.10526316       0.00000000 </v>
   <v>       0.07894737       0.07894737       0.00000000 </v>
   <v>       0.05263158       0.05263158       0.00000000 </v>
   <v>       0.02631579       0.02631579       0.00000000 </v>
   <v>       0.00000000       0.00000000       0.00000000 </v>
   <v>       0.00000000       0.00000000       0.00000000 </v>
   <v>       0.00000000       0.00000000       0.02631579 </v>
   <v>       0.00000000       0.00000000       0.05263158 </v>
   <v>       0.00000000       0.00000000       0.07894737 </v>
   <v>       0.00000000       0.00000000       0.10526316 </v>
   <v>       0.00000000       0.00000000       0.13157895 </v>
   <v>       0.00000000       0.00000000       0.15789474 </v>
   <v>       0.00000000       0.00000000       0.18421053 </v>
   <v>       0.00000000       0.00000000       0.21052632 </v>
   <v>       0.00000000       0.00000000       0.23684211 </v>
   <v>       0.00000000       0.00000000       0.26315789 </v>
   <v>       0.00000000       0.00000000       0.28947368 </v>
   <v>       0.00000000       0.00000000       0.31578947 </v>
   <v>       0.00000000       0.00000000       0.34210526 </v>
   <v>       0.00000000       0.00000000       0.36842105 </v>
   <v>       0.00000000       0.00000000       0.39473684 </v>
   <v>       0.00000000       0.00000000       0.42105263 </v>
   <v>       0.00000000       0.00000000       0.44736842 </v>
   <v>       0.00000000       0.00000000       0.47368421 </v>
   <v>       0.00000000       0.00000000       0.50000000 </v>
   <v>       0.00000000       0.00000000       0.50000000 </v>
   <v>       0.00000000       0.02631579       0.50000000 </v>
   <v>       0.00000000       0.05263158       0.50000000 </v>
   <v>       0.00000000       0.07894737       0.50000000 </v>
   <v>       0.00000000       0.10526316       0.50000000 </v>
   <v>       0.00000000       0.13157895       0.50000000 </v>
   <v>       0.00000000       0.15789474       0.50000000 </v>
   <v>       0.00000000       0.18421053       0.50000000 </v>
   <v>       0.00000000       0.21052632       0.50000000 </v>
   <v>       0.00000000       0.23684211       0.50000000 </v>
   <v>       0.00000000       0.26315789       0.50000000 </v>
   <v>       0.00000000       0.28947368       0.50000000 </v>
   <v>       0.00000000       0.31578947       0.50000000 </v>
   <v>       0.00000000       0.34210526       0.50000000 </v>
   <v>       0.00000000       0.36842105       0.50000000 </v>
   <v>       0.00000000       0.39473684       0.50000000 </v>
   <v>       0.00000000       0.42105263       0.50000000 </v>
   <v>       0.00000000       0.44736842       0.50000000 </v>
   <v>       0.00000000       0.47368421       0.50000000 </v>
   <v>       0.00000000       0.50000000       0.50000000 </v>
   <v>       0.00000000       0.50000000       0.50000000 </v>
   <v>       0.00000000       0.50000000       0.47368421 </v>
   <v>       0.00000000       0.50000000       0.44736842 </v>
   <v>       0.00000000       0.50000000       0.42105263 </v>
   <v>       0.00000000       0.50000000       0.39473684 </v>
   <v>       0.00000000       0.50000000       0.36842105 </v>
   <v>       0.00000000       0.50000000       0.34210526 </v>
   <v>       0.00000000       0.50000000       0.31578947 </v>
   <v>       0.00000000       0.50000000       0.28947368 </v>
   <v>       0.00000000       0.50000000       0.26315789 </v>
   <v>       0.00000000       0.50000000       0.23684211 </v>
   <v>       0.00000000       0.50000000       0.21052632 </v>
   <v>       0.00000000       0.50000000       0.18421053 </v>
   <v>       0.00000000       0.50000000       0.15789474 </v>
   <v>       0.00000000       0.50000000       0.13157895 </v>
   <v>       0.00000000       0.50000000       0.10526316 </v>
   <v>       0.00000000       0.50000000       0.07894737 </v>
   <v>       0.00000000       0.50000000       0.05263158 </v>
   <v>       0.00000000       0.50000000       0.02631579 </v>
   <v>       0.00000000       0.50000000       0.00000000 </v>
   <v>       0.00000000       0.50000000       0.00000000 </v>
   <v>       0.00000000       0.47368421       0.00000000 </v>
   <v>       0.00000000       0.44736842       0.00000000 </v>
   <v>       0.00000000       0.42105263       0.00000000 </v>
   <v>       0.00000000       0.39473684       0.00000000 </v>
   <v>       0.00000000       0.36842105       0.00000000 </v>
   <v>       0.00000000       0.34210526       0.00000000 </v>
   <v>       0.00000000       0.31578947       0.00000000 </v>
   <v>       0.00000000       0.28947368       0.00000000 </v>
   <v>       0.00000000       0.26315789       0.00000000 </v>
   <v>       0.00000000       0.23684211       0.00000000 </v>
   <v>       0.00000000       0.21052632       0.00000000 </v>
   <v>       0.00000000       0.18421053       0.00000000 </v>
   <v>       0.00000000       0.15789474       0.00000000 </v>
   <v>       0.00000000       0.13157895       0.00000000 </v>
   <v>       0.00000000       0.10526316       0.00000000 </v>
   <v>       0.00000000       0.07894737       0.00000000 </v>
   <v>       0.00000000       0.05263158       0.00000000 </v>
   <v>       0.00000000       0.02631579       0.00000000 </v>
   <v>       0.00000000       0.00000000       0.00000000 </v>
  </varray>
  <varray name="weights" >
   <v>       0.00714286 </v>
   <v>       0.00714286 </v>
   <v>       0.00714286 </v>
   <v>       0.00714286 </v>
   <v>       0.00714286 </v>
   <v>       0.00714286 </v>
   <v>       0.00714286 </v>
   <v>       0.00714286 </v>
   <v>       0.00714286 </v>
   <v>       0.00714286 </v>
   <v>       0.00714286 </v>
   <v>       0.00714286 </v>
   <v>       0.00714286 </v>
   <v>       0.00714286 </v>
   <v>       0.00714286 </v>
   <v>       0.00714286 </v>
   <v>       0.00714286 </v>
   <v>       0.00714286 </v>
   <v>       0.00714286 </v>
   <v>       0.00714286 </v>
   <v>       0.00714286 </v>
   <v>       0.00714286 </v>
   <v>       0.00714286 </v>
   <v>       0.00714286 </v>
   <v>       0.00714286 </v>
   <v>       0.00714286 </v>
   <v>       0.00714286 </v>
   <v>       0.00714286 </v>
   <v>       0.00714286 </v>
   <v>       0.00714286 </v>
   <v>       0.00714286 </v>
   <v>       0.00714286 </v>
   <v>       0.00714286 </v>
   <v>       0.00714286 </v>
   <v>       0.00714286 </v>
   <v>       0.00714286 </v>
   <v>       0.00714286 </v>
   <v>       0.00714286 </v>
   <v>       0.00714286 </v>
   <v>       0.00714286 </v>
   <v>       0.00714286 </v>
   <v>       0.00714286 </v>
   <v>       0.00714286 </v>
   <v>       0.00714286 </v>
   <v>       0.00714286 </v>
   <v>       0.00714286 </v>
   <v>       0.00714286 </v>
   <v>       0.00714286 </v>
   <v>       0.00714286 </v>
   <v>       0.00714286 </v>
   <v>       0.00714286 </v>
   <v>       0.00714286 </v>
   <v>       0.00714286 </v>
   <v>       0.00714286 </v>
   <v>       0.00714286 </v>
   <v>       0.00714286 </v>
   <v>       0.00714286 </v>
   <v>       0.00714286 </v>
   <v>       0.00714286 </v>
   <v>       0.00714286 </v>
   <v>       0.00714286 </v>
   <v>       0.00714286 </v>
   <v>       0.00714286 </v>
   <v>       0.00714286 </v>
   <v>       0.00714286 </v>
   <v>       0.00714286 </v>
   <v>       0.00714286 </v>
   <v>       0.00714286 </v>
   <v>       0.00714286 </v>
   <v>       0.00714286 </v>
   <v>       0.00714286 </v>
   <v>       0.00714286 </v>
   <v>       0.00714286 </v>
   <v>       0.00714286 </v>
   <v>       0.00714286 </v>
   <v>       0.00714286 </v>
   <v>       0.00714286 </v>
   <v>       0.00714286 </v>
   <v>       0.00714286 </v>
   <v>       0.00714286 </v>
   <v>       0.00714286 </v>
   <v>       0.00714286 </v>
   <v>       0.00714286 </v>
   <v>       0.00714286 </v>
   <v>       0.00714286 </v>
   <v>       0.00714286 </v>
   <v>       0.00714286 </v>
   <v>       0.00714286 </v>
   <v>       0.00714286 </v>
   <v>       0.00714286 </v>
   <v>       0.00714286 </v>
   <v>       0.00714286 </v>
   <v>       0.00714286 </v>
   <v>       0.00714286 </v>
   <v>       0.00714286 </v>
   <v>       0.00714286 </v>
   <v>       0.00714286 </v>
   <v>       0.00714286 </v>
   <v>       0.00714286 </v>
   <v>       0.00714286 </v>
   <v>       0.00714286 </v>
   <v>       0.00714286 </v>
   <v>       0.00714286 </v>
   <v>       0.00714286 </v>
   <v>       0.00714286 </v>
   <v>       0.00714286 </v>
   <v>       0.00714286 </v>
   <v>       0.00714286 </v>
   <v>       0.00714286 </v>
   <v>       0.00714286 </v>
   <v>       0.00714286 </v>
   <v>       0.00714286 </v>
   <v>       0.00714286 </v>
   <v>       0.00714286 </v>
   <v>       0.00714286 </v>
   <v>       0.00714286 </v>
   <v>       0.00714286 </v>
   <v>       0.00714286 </v>
   <v>       0.00714286 </v>
   <v>       0.00714286 </v>
   <v>       0.00714286 </v>
   <v>       0.00714286 </v>
   <v>       0.00714286 </v>
   <v>       0.00714286 </v>
   <v>       0.00714286 </v>
   <v>       0.00714286 </v>
   <v>       0.00714286 </v>
   <v>       0.00714286 </v>
   <v>       0.00714286 </v>
   <v>       0.00714286 </v>
   <v>       0.00714286 </v>
   <v>       0.00714286 </v>
   <v>       0.00714286 </v>
   <v>       0.00714286 </v>
   <v>       0.00714286 </v>
   <v>       0.00714286 </v>
   <v>       0.00714286 </v>
   <v>       0.00714286 </v>
   <v>       0.00714286 </v>
   <v>       0.00714286 </v>
  </varray>
 </kpoints>
 <parameters>
  <separator name="general" >
   <i type="string" name="SYSTEM">unknown system</i>
   <i type="logical" name="LCOMPAT"> F  </i>
  </separator>
  <separator name="electronic" >
   <i type="string" name="PREC">normal</i>
   <i name="ENMAX">    400.00000000</i>
   <i name="ENAUG">    605.39200000</i>
   <i name="EDIFF">      0.00000100</i>
   <i type="int" name="IALGO">    38</i>
   <i type="int" name="IWAVPR">    10</i>
   <i type="int" name="NBANDS">    20</i>
   <i name="NELECT">     32.00000000</i>
   <i type="int" name="TURBO">     0</i>
   <i type="int" name="IRESTART">     0</i>
   <i type="int" name="NREBOOT">     0</i>
   <i type="int" name="NMIN">     0</i>
   <i name="EREF">      0.00000000</i>
   <separator name="electronic smearing" >
    <i type="int" name="ISMEAR">     0</i>
    <i name="SIGMA">      0.02000000</i>
    <i name="KSPACING">      0.50000000</i>
    <i type="logical" name="KGAMMA"> T  </i>
   </separator>
   <separator name="electronic projectors" >
    <i type="logical" name="LREAL"> F  </i>
    <v name="ROPT">      0.00000000      0.00000000</v>
    <i type="int" name="LMAXPAW">  -100</i>
    <i type="int" name="LMAXMIX">     6</i>
    <i type="logical" name="NLSPLINE"> F  </i>
   </separator>
   <separator name="electronic startup" >
    <i type="int" name="ISTART">     0</i>
    <i type="int" name="ICHARG">    11</i>
    <i type="int" name="INIWAV">     1</i>
   </separator>
   <separator name="electronic spin" >
    <i type="int" name="ISPIN">     1</i>
    <i type="logical" name="LNONCOLLINEAR"> F  </i>
    <v name="MAGMOM">      1.00000000      1.00000000      1.00000000      1.00000000      1.00000000      1.00000000</v>
    <i name="NUPDOWN">     -1.00000000</i>
    <i type="logical" name="LSORBIT"> F  </i>
    <v name="SAXIS">      0.00000000      0.00000000      1.00000000</v>
    <i type="logical" name="LSPIRAL"> F  </i>
    <v name="QSPIRAL">      0.00000000      0.00000000      0.00000000</v>
    <i type="logical" name="LZEROZ"> F  </i>
   </separator>
   <separator name="electronic exchange-correlation" >
    <i type="logical" name="LASPH"> F  </i>
    <i type="logical" name="LMETAGGA"> F  </i>
   </separator>
   <separator name="electronic convergence" >
    <i type="int" name="NELM">    60</i>
    <i type="int" name="NELMDL">    -5</i>
    <i type="int" name="NELMIN">     2</i>
    <i name="ENINI">    400.00000000</i>
    <separator name="electronic convergence detail" >
     <i type="logical" name="LDIAG"> T  </i>
     <i type="logical" name="LSUBROT"> F  </i>
     <i name="WEIMIN">      0.00000000</i>
     <i name="EBREAK">      0.00000001</i>
     <i name="DEPER">      0.30000000</i>
     <i type="int" name="NRMM">     4</i>
     <i name="TIME">      0.40000000</i>
    </separator>
   </separator>
   <separator name="electronic mixer" >
    <i name="AMIX">      0.40000000</i>
    <i name="BMIX">      1.00000000</i>
    <i name="AMIN">      0.10000000</i>
    <i name="AMIX_MAG">      1.60000000</i>
    <i name="BMIX_MAG">      1.00000000</i>
    <separator name="electronic mixer details" >
     <i type="int" name="IMIX">     4</i>
     <i type="logical" name="MIXFIRST"> F  </i>
     <i type="int" name="MAXMIX">   -45</i>
     <i name="WC">    100.00000000</i>
     <i type="int" name="INIMIX">     1</i>
     <i type="int" name="MIXPRE">     1</i>
     <i type="int" name="MREMOVE">     5</i>
    </separator>
   </separator>
   <separator name="electronic dipolcorrection" >
    <i type="logical" name="LDIPOL"> F  </i>
    <i type="logical" name="LMONO"> F  </i>
    <i type="int" name="IDIPOL">     0</i>
    <i name="EPSILON">      1.00000000</i>
    <v name="DIPOL">   -100.00000000   -100.00000000   -100.00000000</v>
    <i name="EFIELD">      0.00000000</i>
   </separator>
  </separator>
  <separator name="grids" >
   <i type="int" name="NGX">    20</i>
   <i type="int" name="NGY">    20</i>
   <i type="int" name="NGZ">    16</i>
   <i type="int" name="NGXF">    40</i>
   <i type="int" name="NGYF">    40</i>
   <i type="int" name="NGZF">    32</i>
   <i type="logical" name="ADDGRID"> F  </i>
  </separator>
  <separator name="ionic" >
   <i type="int" name="NSW">     0</i>
   <i type="int" name="IBRION">    -1</i>
   <i type="int" name="ISIF">     2</i>
   <i name="PSTRESS">      0.00000000</i>
   <i name="EDIFFG">      0.00001000</i>
   <i type="int" name="NFREE">     0</i>
   <i name="POTIM">      0.50000000</i>
   <i name="SMASS">     -3.00000000</i>
   <i name="SCALEE">      1.00000000</i>
  </separator>
  <separator name="ionic md" >
   <i name="TEBEG">      0.00010000</i>
   <i name="TEEND">      0.00010000</i>
   <i type="int" name="NBLOCK">     1</i>
   <i type="int" name="KBLOCK">     1</i>
   <i type="int" name="NPACO">   256</i>
   <i name="APACO">     16.00000000</i>
  </separator>
  <separator name="symmetry" >
   <i type="int" name="ISYM">     2</i>
   <i name="SYMPREC">      0.00001000</i>
  </separator>
  <separator name="dos" >
   <i type="logical" name="LORBIT"> F  </i>
   <v name="RWIGS">     -1.00000000     -1.00000000</v>
   <i type="int" name="NEDOS">   301</i>
   <i name="EMIN">     10.00000000</i>
   <i name="EMAX">    -10.00000000</i>
   <i name="EFERMI">      0.00000000</i>
  </separator>
  <separator name="writing" >
   <i type="int" name="NWRITE">     2</i>
   <i type="logical" name="LWAVE"> T  </i>
   <i type="logical" name="LCHARG"> T  </i>
   <i type="logical" name="LPARD"> F  </i>
   <i type="logical" name="LVTOT"> F  </i>
   <i type="logical" name="LVHAR"> F  </i>
   <i type="logical" name="LELF"> F  </i>
   <i type="logical" name="LOPTICS"> F  </i>
   <v name="STM">      0.00000000      0.00000000      0.00000000      0.00000000      0.00000000      0.00000000      0.00000000</v>
  </separator>
  <separator name="performance" >
   <i type="int" name="NPAR">     4</i>
   <i type="int" name="NSIM">     4</i>
   <i type="int" name="NBLK">    -1</i>
   <i type="logical" name="LPLANE"> T  </i>
   <i type="logical" name="LSCALAPACK"> T  </i>
   <i type="logical" name="LSCAAWARE"> F  </i>
   <i type="logical" name="LSCALU"> F  </i>
   <i type="logical" name="LASYNC"> F  </i>
   <i type="logical" name="LORBITALREAL"> F  </i>
  </separator>
  <separator name="miscellaneous" >
   <i type="int" name="IDIOT">     3</i>
   <i type="logical" name="LMUSIC"> F  </i>
   <v name="POMASS">     47.88000000     16.00000000</v>
   <v name="DARWINR">      0.00000000      0.00000000</v>
   <v name="DARWINV">      1.00000000      1.00000000</v>
   <i type="logical" name="LCORR"> T  </i>
  </separator>
  <i type="logical" name="GGA_COMPAT"> T  </i>
  <i type="logical" name="LBERRY"> F  </i>
  <i type="int" name="ICORELEVEL">     0</i>
  <i type="logical" name="LDAU"> F  </i>
  <i type="int" name="I_CONSTRAINED_M">     0</i>
  <separator name="electronic exchange-correlation" >
   <i type="string" name="GGA">--</i>
   <i type="int" name="VOSKOWN">     0</i>
   <i type="logical" name="LHFCALC"> F  </i>
   <i type="string" name="PRECFOCK"></i>
   <i type="logical" name="LSYMGRAD"> F  </i>
   <i type="logical" name="LHFONE"> F  </i>
   <i type="logical" name="LRHFCALC"> F  </i>
   <i type="logical" name="LTHOMAS"> F  </i>
   <i type="logical" name="LMODELHF"> F  </i>
   <i name="ENCUT4O">     -1.00000000</i>
   <i type="int" name="EXXOEP">     0</i>
   <i type="int" name="FOURORBIT">     0</i>
   <i name="AEXX">      0.00000000</i>
   <i name="HFALPHA">      0.00000000</i>
   <i name="MCALPHA">      0.00000000</i>
   <i name="ALDAX">      1.00000000</i>
   <i name="AGGAX">      1.00000000</i>
   <i name="ALDAC">      1.00000000</i>
   <i name="AGGAC">      1.00000000</i>
   <i type="int" name="NKREDX">     1</i>
   <i type="int" name="NKREDY">     1</i>
   <i type="int" name="NKREDZ">     1</i>
   <i type="logical" name="SHIFTRED"> F  </i>
   <i type="logical" name="ODDONLY"> F  </i>
   <i type="logical" name="EVENONLY"> F  </i>
   <i type="int" name="LMAXFOCK">     0</i>
   <i type="int" name="NMAXFOCKAE">     0</i>
   <i type="logical" name="LFOCKAEDFT"> F  </i>
   <i name="HFSCREEN">      0.00000000</i>
   <i name="HFSCREENC">      0.00000000</i>
   <i type="int" name="NBANDSGWLOW">     0</i>
  </separator>
  <separator name="vdW DFT" >
   <i type="logical" name="LUSE_VDW"> F  </i>
   <i name="Zab_VDW">     -0.84910000</i>
   <i name="PARAM1">      0.12340000</i>
   <i name="PARAM2">      1.00000000</i>
   <i name="PARAM3">      0.00000000</i>
  </separator>
  <separator name="model GW" >
   <i type="int" name="MODEL_GW">     0</i>
   <i name="MODEL_EPS0">      4.80000000</i>
   <i name="MODEL_ALPHA">      1.00000000</i>
  </separator>
  <separator name="linear response parameters" >
   <i type="logical" name="LEPSILON"> F  </i>
   <i type="logical" name="LRPA"> F  </i>
   <i type="logical" name="LNABLA"> F  </i>
   <i type="logical" name="LVEL"> F  </i>
   <i type="int" name="KINTER">     0</i>
   <i name="CSHIFT">      0.10000000</i>
   <i name="OMEGAMAX">     -1.00000000</i>
   <i name="DEG_THRESHOLD">      0.00200000</i>
  </separator>
  <separator name="orbital magnetization" >
   <i type="logical" name="NUCIND"> F  </i>
   <v name="MAGPOS">      0.00000000      0.00000000      0.00000000</v>
   <i type="logical" name="LNICSALL"> T  </i>
   <i type="logical" name="ORBITALMAG"> F  </i>
   <i type="logical" name="LMAGBLOCH"> F  </i>
   <i type="logical" name="LCHIMAG"> F  </i>
   <i type="logical" name="LGAUGE"> T  </i>
   <i type="int" name="MAGATOM">     0</i>
   <v name="MAGDIPOL">      0.00000000      0.00000000      0.00000000</v>
   <v name="AVECCONST">      0.00000000      0.00000000      0.00000000</v>
  </separator>
  <separator name="response functions" >
   <i type="logical" name="LADDER"> F  </i>
   <i type="logical" name="LFXC"> F  </i>
   <i type="logical" name="LHARTREE"> T  </i>
   <i type="int" name="IBSE">     0</i>
   <v type="int" name="KPOINT">    -1     0     0     0</v>
   <i type="logical" name="LTCTE"> F  </i>
   <i type="logical" name="LTETE"> F  </i>
   <i type="logical" name="LTRIPLET"> F  </i>
   <i type="logical" name="LFXCEPS"> F  </i>
   <i type="logical" name="LFXHEG"> F  </i>
   <i type="int" name="NATURALO">     0</i>
   <i type="logical" name="L2ORDER"> F  </i>
   <i type="logical" name="LUSEW"> F  </i>
   <i name="ENCUTGW">     -2.00000000</i>
   <i name="ENCUTGWSOFT">     -2.00000000</i>
   <i name="ENCUTLF">     -1.00000000</i>
   <i type="int" name="LMAXMP2">    -1</i>
   <i name="SCISSOR">      0.00000000</i>
   <i type="int" name="NOMEGA">     0</i>
   <i type="int" name="NOMEGAR">     0</i>
   <i type="int" name="NBANDSGW">    -1</i>
   <i type="int" name="NBANDSO">    -1</i>
   <i type="int" name="NBANDSV">    -1</i>
   <i type="int" name="NELM">     1</i>
   <i type="int" name="NELMHF">     1</i>
   <i type="int" name="DIM">     3</i>
   <i type="int" name="ANTIRES">     0</i>
   <i name="OMEGAMAX">    -30.00000000</i>
   <i name="OMEGAMIN">    -30.00000000</i>
   <i name="OMEGATL">   -200.00000000</i>
   <i type="int" name="OMEGAGRID">     0</i>
   <i name="CSHIFT">     -0.10000000</i>
   <i type="logical" name="SELFENERGY"> F  </i>
   <i type="logical" name="LSPECTRAL"> F  </i>
   <i type="logical" name="LSPECTRALGW"> F  </i>
   <i type="logical" name="LSINGLES"> F  </i>
   <i type="logical" name="LFERMIGW"> F  </i>
   <i type="logical" name="ODDONLYGW"> F  </i>
   <i type="logical" name="EVENONLYGW"> F  </i>
   <i type="int" name="NKREDLFX">     1</i>
   <i type="int" name="NKREDLFY">     1</i>
   <i type="int" name="NKREDLFZ">     1</i>
   <i type="int" name="MAXMEM">  1800</i>
   <i type="int" name="TELESCOPE">     0</i>
   <i type="int" name="TAUPAR">     1</i>
   <i type="int" name="OMEGAPAR">    -1</i>
   <i name="LAMBDA">      1.00000000</i>
  </separator>
  <separator name="External order field" >
   <i name="OFIELD_KAPPA">      0.00000000</i>
   <v name="OFIELD_K">      0.00000000      0.00000000      0.00000000</v>
   <i name="OFIELD_Q6_NEAR">      0.00000000</i>
   <i name="OFIELD_Q6_FAR">      0.00000000</i>
   <i name="OFIELD_A">      0.00000000</i>
  </separator>
 </parameters>
 <atominfo>
  <atoms>       6 </atoms>
  <types>       2 </types>
  <array name="atoms" >
   <dimension dim="1">ion</dimension>
   <field type="string">element</field>
   <field type="int">atomtype</field>
   <set>
    <rc><c>Ti</c><c>   1</c></rc>
    <rc><c>Ti</c><c>   1</c></rc>
    <rc><c>O </c><c>   2</c></rc>
    <rc><c>O </c><c>   2</c></rc>
    <rc><c>O </c><c>   2</c></rc>
    <rc><c>O </c><c>   2</c></rc>
   </set>
  </array>
  <array name="atomtypes" >
   <dimension dim="1">type</dimension>
   <field type="int">atomspertype</field>
   <field type="string">element</field>
   <field>mass</field>
   <field>valence</field>
   <field type="string">pseudopotential</field>
   <set>
    <rc><c>   2</c><c>Ti</c><c>     47.88000000</c><c>      4.00000000</c><c>  PAW_PBE Ti 08Apr2002                  </c></rc>
    <rc><c>   4</c><c>O </c><c>     16.00000000</c><c>      6.00000000</c><c>  PAW_PBE O 08Apr2002                   </c></rc>
   </set>
  </array>
 </atominfo>
 <structure name="initialpos" >
  <crystal>
   <varray name="basis" >
    <v>       4.00000000       0.00000000       0.00000000 </v>
    <v>       0.00000000       4.00000000       0.00000000 </v>
    <v>       0.00000000       0.00000000       3.00000000 </v>
   </varray>
   <i name="volume">     48.00000000 </i>
   <varray name="rec_basis" >
    <v>       0.25000000       0.00000000       0.00000000 </v>
    <v>       0.00000000       0.25000000       0.00000000 </v>
    <v>       0.00000000       0.00000000       0.33333333 </v>
   </varray>
  </crystal>
  <varray name="positions" >
   <v>       0.00000000       0.00000000       0.00000000 </v>
   <v>       0.50000000       0.50000000       0.50000000 </v>
   <v>       0.31000000       0.31000000       0.00000000 </v>
   <v>       0.69000000       0.69000000       0.00000000 </v>
   <v>       0.19000000       0.81000000       0.50000000 </v>
   <v>       0.81000000       0.19000000       0.50000000 </v>
  </varray>
 </structure>
 <calculation>
  <scstep>
   <time name="dav">    0.92    0.95</time>
   <time name="total">    0.94    0.97</time>
   <energy>
    <i name="alphaZ">    179.23249467 </i>
    <i name="ewald">  -1731.87516093 </i>
    <i name="hartreedc">   -444.61422352 </i>
    <i name="XCdc">     46.27836254 </i>
    <i name="pawpsdc">   4934.48631691 </i>
    <i name="pawaedc">  -4864.29382323 </i>
    <i name="eentropy">     -0.00032717 </i>
    <i name="bandstr">    231.42179661 </i>
    <i name="atom">   1918.63731855 </i>
    <i name="e_fr_energy">    269.27275443 </i>
    <i name="e_wo_entrp">    269.27308161 </i>
    <i name="e_0_energy">    269.27291802 </i>
   </energy>
  </scstep>
  <scstep>
   <time name="dav">    0.97    0.98</time>
   <time name="total">    0.98    0.99</time>
   <energy>
    <i name="e_fr_energy">      8.00664810 </i>
    <i name="e_wo_entrp">      8.00751084 </i>
    <i name="e_0_energy">      8.00707947 </i>
   </energy>
  </scstep>
  <scstep>
   <time name="dav">    1.25    1.26</time>
   <time name="total">    1.26    1.26</time>
   <energy>
    <i name="e_fr_energy">    -43.86497877 </i>
    <i name="e_wo_entrp">    -43.86492115 </i>
    <i name="e_0_energy">    -43.86494996 </i>
   </energy>
  </scstep>
  <scstep>
   <time name="dav">    0.96    0.96</time>
   <time name="total">    0.96    0.96</time>
   <energy>
    <i name="e_fr_energy">    -46.76123826 </i>
    <i name="e_wo_entrp">    -46.76123826 </i>
    <i name="e_0_energy">    -46.76123826 </i>
   </energy>
  </scstep>
  <scstep>
   <time name="dav">    0.96    0.97</time>
   <time name="total">    0.97    0.98</time>
   <energy>
    <i name="e_fr_energy">    -46.83527592 </i>
    <i name="e_wo_entrp">    -46.83527592 </i>
    <i name="e_0_energy">    -46.83527592 </i>
   </energy>
  </scstep>
  <scstep>
   <time name="dav">    0.99    0.99</time>
   <time name="total">    0.99    1.00</time>
   <energy>
    <i name="e_fr_energy">    -46.83756020 </i>
    <i name="e_wo_entrp">    -46.83756020 </i>
    <i name="e_0_energy">    -46.83756020 </i>
   </energy>
  </scstep>
  <scstep>
   <time name="dav">    0.97    0.97</time>
   <time name="total">    0.97    0.98</time>
   <energy>
    <i name="e_fr_energy">    -46.83761544 </i>
    <i name="e_wo_entrp">    -46.83761544 </i>
    <i name="e_0_energy">    -46.83761544 </i>
   </energy>
  </scstep>
  <scstep>
   <time name="dav">    0.97    0.97</time>
   <time name="total">    0.97    0.98</time>
   <energy>
    <i name="e_fr_energy">    -46.83761696 </i>
    <i name="e_wo_entrp">    -46.83761696 </i>
    <i name="e_0_energy">    -46.83761696 </i>
   </energy>
  </scstep>
  <scstep>
   <time name="dav">    0.71    0.71</time>
   <time name="total">    0.71    0.72</time>
   <energy>
    <i name="alphaZ">    179.23249467 </i>
    <i name="ewald">  -1731.87516093 </i>
    <i name="hartreedc">   -444.61422352 </i>
    <i name="XCdc">     46.27836254 </i>
    <i name="pawpsdc">   4934.48631691 </i>
    <i name="pawaedc">  -4864.29382323 </i>
    <i name="eentropy">     -0.00000000 </i>
    <i name="bandstr">    -84.68890201 </i>
    <i name="atom">   1918.63731855 </i>
    <i name="e_fr_energy">    -46.83761701 </i>
    <i name="e_wo_entrp">    -46.83761701 </i>
    <i name="e_0_energy">    -46.83761701 </i>
   </energy>
  </scstep>
  <structure>
   <crystal>
    <varray name="basis" >
     <v>       4.00000000       0.00000000       0.00000000 </v>
     <v>       0.00000000       4.00000000       0.00000000 </v>
     <v>       0.00000000       0.00000000       3.00000000 </v>
    </varray>
    <i name="volume">     48.00000000 </i>
    <varray name="rec_basis" >
     <v>       0.25000000       0.00000000       0.00000000 </v>
     <v>       0.00000000       0.25000000       0.00000000 </v>
     <v>       0.00000000       0.00000000       0.33333333 </v>
    </varray>
   </crystal>
   <varray name="positions" >
    <v>       0.00000000       0.00000000       0.00000000 </v>
    <v>       0.50000000       0.50000000       0.50000000 </v>
    <v>       0.31000000       0.31000000       0.00000000 </v>
    <v>       0.69000000       0.69000000       0.00000000 </v>
    <v>       0.19000000       0.81000000       0.50000000 </v>
    <v>       0.81000000       0.19000000       0.50000000 </v>
   </varray>
  </structure>
  <varray name="forces" >
   <v>       0.00000000       0.00000000       0.00000000 </v>
   <v>       0.00000000       0.00000000       0.00000000 </v>
   <v>      -0.45831968      -0.45831968       0.00000000 </v>
   <v>       0.45831968       0.45831968      -0.00000000 </v>
   <v>       0.45831968      -0.45831968       0.00000000 </v>
   <v>      -0.45831968       0.45831968       0.00000000 </v>
  </varray>
  <varray name="stress" >
   <v>    1346.28683231      -0.00000000       0.00000000 </v>
   <v>      -0.00000000    1346.28683231       0.00000000 </v>
   <v>       0.00000000       0.00000000    1107.94021143 </v>
  </varray>
  <energy>
   <i name="e_fr_energy">    -46.83761701 </i>
   <i name="e_wo_entrp">    -46.83761701 </i>
   <i name="e_0_energy">     -0.00000000 </i>
  </energy>
  <time name="totalsc">    9.89   10.01</time>
  <eigenvalues>
   <array>
    <dimension dim="1">band</dimension>
    <dimension dim="2">kpoint</dimension>
    <dimension dim="3">spin</dimension>
    <field>eigene</field>
    <field>occ</field>
    <set>
     <set comment="spin 1">
      <set comment="kpoint 1">
       <r>  -13.5743    1.0000 </r>
       <r>  -13.5743    1.0000 </r>
       <r>  -12.7179    1.0000 </r>
       <r>  -12.7179    1.0000 </r>
       <r>   -1.4234    1.0000 </r>
       <r>   -1.4234    1.0000 </r>
       <r>   -0.4599    1.0000 </r>
       <r>   -0.4599    1.0000 </r>
       <r>    0.2059    1.0000 </r>
       <r>    0.2059    1.0000 </r>
       <r>    0.4337    1.0000 </r>
       <r>    0.4337    1.0000 </r>
       <r>    2.7326    1.0000 </r>
       <r>    2.7326    1.0000 </r>
       <r>    3.0891    1.0000 </r>
       <r>    3.0891    1.0000 </r>
       <r>    7.3101    0.0000 </r>
       <r>    7.3101    0.0000 </r>
       <r>    8.7643    0.0000 </r>
       <r>    8.7643    0.0000 </r>
      </set>
      <set comment="kpoint 2">
       <r>  -13.5758    1.0000 </r>
       <r>  -13.5721    1.0000 </r>
       <r>  -12.7199    1.0000 </r>
       <r>  -12.7169    1.0000 </r>
       <r>   -1.4355    1.0000 </r>
       <r>   -1.4079    1.0000 </r>
       <r>   -0.5298    1.0000 </r>
       <r>   -0.5146    1.0000 </r>
       <r>    0.2116    1.0000 </r>
       <r>    0.3019    1.0000 </r>
       <r>    0.4466    1.0000 </r>
       <r>    0.5020    1.0000 </r>
       <r>    2.7045    1.0000 </r>
       <r>    2.7332    1.0000 </r>
       <r>    3.0699    1.0000 </r>
       <r>    3.0871    1.0000 </r>
       <r>    7.3117    0.0000 </r>
       <r>    7.3164    0.0000 </r>
       <r>    8.7187    0.0000 </r>
       <r>    8.7579    0.0000 </r>
      </set>
      <set comment="kpoint 3">
       <r>  -13.5800    1.0000 </r>
       <r>  -13.5658    1.0000 </r>
       <r>  -12.7260    1.0000 </r>
       <r>  -12.7142    1.0000 </r>
       <r>   -1.4742    1.0000 </r>
       <r>   -1.3624    1.0000 </r>
       <r>   -0.6665    1.0000 </r>
       <r>   -0.6447    1.0000 </r>
       <r>    0.2285    1.0000 </r>
       <r>    0.4850    1.0000 </r>
       <r>    0.5177    1.0000 </r>
       <r>    0.6726    1.0000 </r>
       <r>    2.6209    1.0000 </r>
       <r>    2.7349    1.0000 </r>
       <r>    3.0125    1.0000 </r>
       <r>    3.0809    1.0000 </r>
       <r>    7.3166    0.0000 </r>
       <r>    7.3344    0.0000 </r>
       <r>    8.6004    0.0000 </r>
       <r>    8.7390    0.0000 </r>
      </set>
      <set comment="kpoint 4">
       <r>  -13.5854    1.0000 </r>
       <r>  -13.5548    1.0000 </r>
       <r>  -12.7352    1.0000 </r>
       <r>  -12.7099    1.0000 </r>
       <r>   -1.5431    1.0000 </r>
       <r>   -1.2875    1.0000 </r>
       <r>   -0.8029    1.0000 </r>
       <r>   -0.7933    1.0000 </r>
       <r>    0.2580    1.0000 </r>
       <r>    0.5503    1.0000 </r>
       <r>    0.7805    1.0000 </r>
       <r>    0.8977    1.0000 </r>
       <r>    2.4901    1.0000 </r>
       <r>    2.7377    1.0000 </r>
       <r>    2.9230    1.0000 </r>
       <r>    3.0710    1.0000 </r>
       <r>    7.3243    0.0000 </r>
       <r>    7.3621    0.0000 </r>
       <r>    8.4405    0.0000 </r>
       <r>    8.7094    0.0000 </r>
      </set>
      <set comment="kpoint 5">
       <r>  -13.5921    1.0000 </r>
       <r>  -13.5402    1.0000 </r>
       <r>  -12.7492    1.0000 </r>
       <r>  -12.7062    1.0000 </r>
       <r>   -1.6416    1.0000 </r>
       <r>   -1.1908    1.0000 </r>
       <r>   -0.9660    1.0000 </r>
       <r>   -0.8862    1.0000 </r>
       <r>    0.2985    1.0000 </r>
       <r>    0.6358    1.0000 </r>
       <r>    1.0595    1.0000 </r>
       <r>    1.1515    1.0000 </r>
       <r>    2.3151    1.0000 </r>
       <r>    2.7416    1.0000 </r>
       <r>    2.8026    1.0000 </r>
       <r>    3.0569    1.0000 </r>
       <r>    7.3343    0.0000 </r>
       <r>    7.3959    0.0000 </r>
       <r>    8.2604    0.0000 </r>
       <r>    8.6663    0.0000 </r>
      </set>
      <set comment="kpoint 6">
       <r>  -13.5970    1.0000 </r>
       <r>  -13.5217    1.0000 </r>
       <r>  -12.7651    1.0000 </r>
       <r>  -12.7026    1.0000 </r>
       <r>   -1.7594    1.0000 </r>
       <r>   -1.1230    1.0000 </r>
       <r>   -1.0756    1.0000 </r>
       <r>   -0.9442    1.0000 </r>
       <r>    0.3504    1.0000 </r>
       <r>    0.7463    1.0000 </r>
       <r>    1.3386    1.0000 </r>
       <r>    1.4223    1.0000 </r>
       <r>    2.1142    1.0000 </r>
       <r>    2.6642    1.0000 </r>
       <r>    2.7473    1.0000 </r>
       <r>    3.0401    1.0000 </r>
       <r>    7.3461    0.0000 </r>
       <r>    7.4325    0.0000 </r>
       <r>    8.0742    0.0000 </r>
       <r>    8.6157    0.0000 </r>
      </set>
      <set comment="kpoint 7">
       <r>  -13.5999    1.0000 </r>
       <r>  -13.5006    1.0000 </r>
       <r>  -12.7844    1.0000 </r>
       <r>  -12.7017    1.0000 </r>
       <r>   -1.8825    1.0000 </r>
       <r>   -1.2701    1.0000 </r>
       <r>   -0.9773    1.0000 </r>
       <r>   -0.9511    1.0000 </r>
       <r>    0.4084    1.0000 </r>
       <r>    0.8740    1.0000 </r>
       <r>    1.5947    1.0000 </r>
       <r>    1.7019    1.0000 </r>
       <r>    1.8974    1.0000 </r>
       <r>    2.5242    1.0000 </r>
       <r>    2.7533    1.0000 </r>
       <r>    3.0208    1.0000 </r>
       <r>    7.3592    0.0000 </r>
       <r>    7.4680    0.0000 </r>
       <r>    7.8907    0.0000 </r>
       <r>    8.5549    0.0000 </r>
      </set>
      <set comment="kpoint 8">
       <r>  -13.5995    1.0000 </r>
       <r>  -13.4773    1.0000 </r>
       <r>  -12.8056    1.0000 </r>
       <r>  -12.7030    1.0000 </r>
       <r>   -1.9989    1.0000 </r>
       <r>   -1.4052    1.0000 </r>
       <r>   -0.9955    1.0000 </r>
       <r>   -0.8240    1.0000 </r>
       <r>    0.4631    1.0000 </r>
       <r>    1.0191    1.0000 </r>
       <r>    1.6880    1.0000 </r>
       <r>    1.7717    1.0000 </r>
       <r>    1.9849    1.0000 </r>
       <r>    2.4382    1.0000 </r>
       <r>    2.7604    1.0000 </r>
       <r>    2.9992    1.0000 </r>
       <r>    7.3732    0.0000 </r>
       <r>    7.4996    0.0000 </r>
       <r>    7.7179    0.0000 </r>
       <r>    8.4878    0.0000 </r>
      </set>
      <set comment="kpoint 9">
       <r>  -13.5938    1.0000 </r>
       <r>  -13.4527    1.0000 </r>
       <r>  -12.8278    1.0000 </r>
       <r>  -12.7089    1.0000 </r>
       <r>   -2.1015    1.0000 </r>
       <r>   -1.5278    1.0000 </r>
       <r>   -1.0045    1.0000 </r>
       <r>   -0.7052    1.0000 </r>
       <r>    0.4875    1.0000 </r>
       <r>    1.1796    1.0000 </r>
       <r>    1.5297    1.0000 </r>
       <r>    1.7698    1.0000 </r>
       <r>    2.2639    1.0000 </r>
       <r>    2.5060    1.0000 </r>
       <r>    2.7660    1.0000 </r>
       <r>    2.9756    1.0000 </r>
       <r>    7.3876    0.0000 </r>
       <r>    7.5246    0.0000 </r>
       <r>    7.5619    0.0000 </r>
       <r>    8.4172    0.0000 </r>
      </set>
      <set comment="kpoint 10">
       <r>  -13.5822    1.0000 </r>
       <r>  -13.4263    1.0000 </r>
       <r>  -12.8510    1.0000 </r>
       <r>  -12.7187    1.0000 </r>
       <r>   -2.1850    1.0000 </r>
       <r>   -1.6366    1.0000 </r>
       <r>   -1.0088    1.0000 </r>
       <r>   -0.6018    1.0000 </r>
       <r>    0.4431    1.0000 </r>
       <r>    1.3504    1.0000 </r>
       <r>    1.4703    1.0000 </r>
       <r>    1.6206    1.0000 </r>
       <r>    2.5283    1.0000 </r>
       <r>    2.6966    1.0000 </r>
       <r>    2.7734    1.0000 </r>
       <r>    2.9568    1.0000 </r>
       <r>    7.4024    0.0000 </r>
       <r>    7.4305    0.0000 </r>
       <r>    7.5421    0.0000 </r>
       <r>    8.3438    0.0000 </r>
      </set>
      <set comment="kpoint 11">
       <r>  -13.5638    1.0000 </r>
       <r>  -13.3992    1.0000 </r>
       <r>  -12.8737    1.0000 </r>
       <r>  -12.7328    1.0000 </r>
       <r>   -2.2467    1.0000 </r>
       <r>   -1.7317    1.0000 </r>
       <r>   -1.0110    1.0000 </r>
       <r>   -0.5233    1.0000 </r>
       <r>    0.3216    1.0000 </r>
       <r>    1.4167    1.0000 </r>
       <r>    1.5270    1.0000 </r>
       <r>    1.5285    1.0000 </r>
       <r>    2.7443    1.0000 </r>
       <r>    2.7833    1.0000 </r>
       <r>    2.9174    1.0000 </r>
       <r>    2.9744    1.0000 </r>
       <r>    7.3301    0.0000 </r>
       <r>    7.4172    0.0000 </r>
       <r>    7.5515    0.0000 </r>
       <r>    8.2703    0.0000 </r>
      </set>
      <set comment="kpoint 12">
       <r>  -13.5392    1.0000 </r>
       <r>  -13.3728    1.0000 </r>
       <r>  -12.8961    1.0000 </r>
       <r>  -12.7522    1.0000 </r>
       <r>   -2.2862    1.0000 </r>
       <r>   -1.8147    1.0000 </r>
       <r>   -1.0137    1.0000 </r>
       <r>   -0.4840    1.0000 </r>
       <r>    0.1709    1.0000 </r>
       <r>    1.1948    1.0000 </r>
       <r>    1.6660    1.0000 </r>
       <r>    1.7099    1.0000 </r>
       <r>    2.7905    1.0000 </r>
       <r>    2.8136    1.0000 </r>
       <r>    3.1150    1.0000 </r>
       <r>    3.1317    1.0000 </r>
       <r>    7.2661    0.0000 </r>
       <r>    7.4318    0.0000 </r>
       <r>    7.5535    0.0000 </r>
       <r>    8.1988    0.0000 </r>
      </set>
      <set comment="kpoint 13">
       <r>  -13.5085    1.0000 </r>
       <r>  -13.3477    1.0000 </r>
       <r>  -12.9176    1.0000 </r>
       <r>  -12.7769    1.0000 </r>
       <r>   -2.3034    1.0000 </r>
       <r>   -1.8855    1.0000 </r>
       <r>   -1.0189    1.0000 </r>
       <r>   -0.5069    1.0000 </r>
       <r>    0.0500    1.0000 </r>
       <r>    0.9707    1.0000 </r>
       <r>    1.8473    1.0000 </r>
       <r>    1.8881    1.0000 </r>
       <r>    2.7971    1.0000 </r>
       <r>    2.8015    1.0000 </r>
       <r>    3.3105    1.0000 </r>
       <r>    3.3249    1.0000 </r>
       <r>    7.2440    0.0000 </r>
       <r>    7.4458    0.0000 </r>
       <r>    7.5494    0.0000 </r>
       <r>    8.1305    0.0000 </r>
      </set>
      <set comment="kpoint 14">
       <r>  -13.4725    1.0000 </r>
       <r>  -13.3245    1.0000 </r>
       <r>  -12.9377    1.0000 </r>
       <r>  -12.8066    1.0000 </r>
       <r>   -2.2993    1.0000 </r>
       <r>   -1.9451    1.0000 </r>
       <r>   -1.0285    1.0000 </r>
       <r>   -0.6034    1.0000 </r>
       <r>   -0.0051    1.0000 </r>
       <r>    0.7533    1.0000 </r>
       <r>    2.0438    1.0000 </r>
       <r>    2.0582    1.0000 </r>
       <r>    2.7755    1.0000 </r>
       <r>    2.8027    1.0000 </r>
       <r>    3.4884    1.0000 </r>
       <r>    3.4925    1.0000 </r>
       <r>    7.2664    0.0000 </r>
       <r>    7.4589    0.0000 </r>
       <r>    7.5413    0.0000 </r>
       <r>    8.0672    0.0000 </r>
      </set>
      <set comment="kpoint 15">
       <r>  -13.4306    1.0000 </r>
       <r>  -13.3026    1.0000 </r>
       <r>  -12.9546    1.0000 </r>
       <r>  -12.8399    1.0000 </r>
       <r>   -2.2760    1.0000 </r>
       <r>   -1.9933    1.0000 </r>
       <r>   -1.0437    1.0000 </r>
       <r>   -0.7405    1.0000 </r>
       <r>   -0.0098    1.0000 </r>
       <r>    0.5537    1.0000 </r>
       <r>    2.2180    1.0000 </r>
       <r>    2.2406    1.0000 </r>
       <r>    2.7500    1.0000 </r>
       <r>    2.8077    1.0000 </r>
       <r>    3.6366    1.0000 </r>
       <r>    3.6373    1.0000 </r>
       <r>    7.3337    0.0000 </r>
       <r>    7.4709    0.0000 </r>
       <r>    7.5316    0.0000 </r>
       <r>    8.0119    0.0000 </r>
      </set>
      <set comment="kpoint 16">
       <r>  -13.3864    1.0000 </r>
       <r>  -13.2849    1.0000 </r>
       <r>  -12.9696    1.0000 </r>
       <r>  -12.8775    1.0000 </r>
       <r>   -2.2383    1.0000 </r>
       <r>   -2.0318    1.0000 </r>
       <r>   -1.0673    1.0000 </r>
       <r>   -0.8796    1.0000 </r>
       <r>    0.0019    1.0000 </r>
       <r>    0.3774    1.0000 </r>
       <r>    2.3594    1.0000 </r>
       <r>    2.4172    1.0000 </r>
       <r>    2.7239    1.0000 </r>
       <r>    2.8086    1.0000 </r>
       <r>    3.7479    1.0000 </r>
       <r>    3.7523    1.0000 </r>
       <r>    7.4391    0.0000 </r>
       <r>    7.4813    0.0000 </r>
       <r>    7.5219    0.0000 </r>
       <r>    7.9644    0.0000 </r>
      </set>
      <set comment="kpoint 17">
       <r>  -13.3407    1.0000 </r>
       <r>  -13.2710    1.0000 </r>
       <r>  -12.9814    1.0000 </r>
       <r>  -12.9173    1.0000 </r>
       <r>   -2.1922    1.0000 </r>
       <r>   -2.0607    1.0000 </r>
       <r>   -1.0967    1.0000 </r>
       <r>   -1.0008    1.0000 </r>
       <r>    0.0171    1.0000 </r>
       <r>    0.2328    1.0000 </r>
       <r>    2.4794    1.0000 </r>
       <r>    2.5672    1.0000 </r>
       <r>    2.7027    1.0000 </r>
       <r>    2.8061    1.0000 </r>
       <r>    3.8310    1.0000 </r>
       <r>    3.8356    1.0000 </r>
       <r>    7.4898    0.0000 </r>
       <r>    7.5133    0.0000 </r>
       <r>    7.5719    0.0000 </r>
       <r>    7.9265    0.0000 </r>
      </set>
      <set comment="kpoint 18">
       <r>  -13.2979    1.0000 </r>
       <r>  -13.2609    1.0000 </r>
       <r>  -12.9892    1.0000 </r>
       <r>  -12.9547    1.0000 </r>
       <r>   -2.1457    1.0000 </r>
       <r>   -2.0809    1.0000 </r>
       <r>   -1.1296    1.0000 </r>
       <r>   -1.0919    1.0000 </r>
       <r>    0.0299    1.0000 </r>
       <r>    0.1278    1.0000 </r>
       <r>    2.5781    1.0000 </r>
       <r>    2.6836    1.0000 </r>
       <r>    2.6857    1.0000 </r>
       <r>    2.7985    1.0000 </r>
       <r>    3.8881    1.0000 </r>
       <r>    3.8927    1.0000 </r>
       <r>    7.4962    0.0000 </r>
       <r>    7.5068    0.0000 </r>
       <r>    7.7126    0.0000 </r>
       <r>    7.8996    0.0000 </r>
      </set>
      <set comment="kpoint 19">
       <r>  -13.2651    1.0000 </r>
       <r>  -13.2546    1.0000 </r>
       <r>  -12.9943    1.0000 </r>
       <r>  -12.9844    1.0000 </r>
       <r>   -2.1103    1.0000 </r>
       <r>   -2.0927    1.0000 </r>
       <r>   -1.1554    1.0000 </r>
       <r>   -1.1478    1.0000 </r>
       <r>    0.0377    1.0000 </r>
       <r>    0.0625    1.0000 </r>
       <r>    2.6452    1.0000 </r>
       <r>    2.6761    1.0000 </r>
       <r>    2.7549    1.0000 </r>
       <r>    2.7869    1.0000 </r>
       <r>    3.9199    1.0000 </r>
       <r>    3.9216    1.0000 </r>
       <r>    7.5001    0.0000 </r>
       <r>    7.5028    0.0000 </r>
       <r>    7.8300    0.0000 </r>
       <r>    7.8832    0.0000 </r>
      </set>
      <set comment="kpoint 20">
       <r>  -13.2529    1.0000 </r>
       <r>  -13.2529    1.0000 </r>
       <r>  -12.9962    1.0000 </r>
       <r>  -12.9962    1.0000 </r>
       <r>   -2.0972    1.0000 </r>
       <r>   -2.0972    1.0000 </r>
       <r>   -1.1665    1.0000 </r>
       <r>   -1.1665    1.0000 </r>
       <r>    0.0397    1.0000 </r>
       <r>    0.0397    1.0000 </r>
       <r>    2.6724    1.0000 </r>
       <r>    2.6724    1.0000 </r>
       <r>    2.7789    1.0000 </r>
       <r>    2.7789    1.0000 </r>
       <r>    3.9310    1.0000 </r>
       <r>    3.9310    1.0000 </r>
       <r>    7.5011    0.0000 </r>
       <r>    7.5011    0.0000 </r>
       <r>    7.8780    0.0000 </r>
       <r>    7.8780    0.0000 </r>
      </set>
      <set comment="kpoint 21">
       <r>  -13.2529    1.0000 </r>
       <r>  -13.2529    1.0000 </r>
       <r>  -12.9962    1.0000 </r>
       <r>  -12.9962    1.0000 </r>
       <r>   -2.0972    1.0000 </r>
       <r>   -2.0972    1.0000 </r>
       <r>   -1.1665    1.0000 </r>
       <r>   -1.1665    1.0000 </r>
       <r>    0.0397    1.0000 </r>
       <r>    0.0397    1.0000 </r>
       <r>    2.6724    1.0000 </r>
       <r>    2.6724    1.0000 </r>
       <r>    2.7789    1.0000 </r>
       <r>    2.7789    1.0000 </r>
       <r>    3.9310    1.0000 </r>
       <r>    3.9310    1.0000 </r>
       <r>    7.5011    0.0000 </r>
       <r>    7.5011    0.0000 </r>
       <r>    7.8780    0.0000 </r>
       <r>    7.8780    0.0000 </r>
      </set>
      <set comment="kpoint 22">
       <r>  -13.2595    1.0000 </r>
       <r>  -13.2595    1.0000 </r>
       <r>  -12.9910    1.0000 </r>
       <r>  -12.9910    1.0000 </r>
       <r>   -2.0936    1.0000 </r>
       <r>   -2.0936    1.0000 </r>
       <r>   -1.1759    1.0000 </r>
       <r>   -1.1759    1.0000 </r>
       <r>    0.0545    1.0000 </r>
       <r>    0.0545    1.0000 </r>
       <r>    2.6669    1.0000 </r>
       <r>    2.6669    1.0000 </r>
       <r>    2.7811    1.0000 </r>
       <r>    2.7811    1.0000 </r>
       <r>    3.9218    1.0000 </r>
       <r>    3.9218    1.0000 </r>
       <r>    7.5071    0.0000 </r>
       <r>    7.5071    0.0000 </r>
       <r>    7.8885    0.0000 </r>
       <r>    7.8885    0.0000 </r>
      </set>
      <set comment="kpoint 23">
       <r>  -13.2827    1.0000 </r>
       <r>  -13.2827    1.0000 </r>
       <r>  -12.9780    1.0000 </r>
       <r>  -12.9780    1.0000 </r>
       <r>   -2.0845    1.0000 </r>
       <r>   -2.0845    1.0000 </r>
       <r>   -1.2062    1.0000 </r>
       <r>   -1.2062    1.0000 </r>
       <r>    0.0916    1.0000 </r>
       <r>    0.0916    1.0000 </r>
       <r>    2.6478    1.0000 </r>
       <r>    2.6478    1.0000 </r>
       <r>    2.7832    1.0000 </r>
       <r>    2.7832    1.0000 </r>
       <r>    3.8855    1.0000 </r>
       <r>    3.8855    1.0000 </r>
       <r>    7.5234    0.0000 </r>
       <r>    7.5234    0.0000 </r>
       <r>    7.9186    0.0000 </r>
       <r>    7.9186    0.0000 </r>
      </set>
      <set comment="kpoint 24">
       <r>  -13.3205    1.0000 </r>
       <r>  -13.3205    1.0000 </r>
       <r>  -12.9566    1.0000 </r>
       <r>  -12.9566    1.0000 </r>
       <r>   -2.0691    1.0000 </r>
       <r>   -2.0691    1.0000 </r>
       <r>   -1.2566    1.0000 </r>
       <r>   -1.2566    1.0000 </r>
       <r>    0.1545    1.0000 </r>
       <r>    0.1545    1.0000 </r>
       <r>    2.6169    1.0000 </r>
       <r>    2.6169    1.0000 </r>
       <r>    2.7832    1.0000 </r>
       <r>    2.7832    1.0000 </r>
       <r>    3.8301    1.0000 </r>
       <r>    3.8301    1.0000 </r>
       <r>    7.5484    0.0000 </r>
       <r>    7.5484    0.0000 </r>
       <r>    7.9673    0.0000 </r>
       <r>    7.9673    0.0000 </r>
      </set>
      <set comment="kpoint 25">
       <r>  -13.3709    1.0000 </r>
       <r>  -13.3709    1.0000 </r>
       <r>  -12.9271    1.0000 </r>
       <r>  -12.9271    1.0000 </r>
       <r>   -2.0473    1.0000 </r>
       <r>   -2.0473    1.0000 </r>
       <r>   -1.3260    1.0000 </r>
       <r>   -1.3260    1.0000 </r>
       <r>    0.2449    1.0000 </r>
       <r>    0.2449    1.0000 </r>
       <r>    2.5762    1.0000 </r>
       <r>    2.5762    1.0000 </r>
       <r>    2.7762    1.0000 </r>
       <r>    2.7762    1.0000 </r>
       <r>    3.7656    1.0000 </r>
       <r>    3.7656    1.0000 </r>
       <r>    7.5789    0.0000 </r>
       <r>    7.5789    0.0000 </r>
       <r>    8.0333    0.0000 </r>
       <r>    8.0333    0.0000 </r>
      </set>
      <set comment="kpoint 26">
       <r>  -13.4340    1.0000 </r>
       <r>  -13.4340    1.0000 </r>
       <r>  -12.8930    1.0000 </r>
       <r>  -12.8930    1.0000 </r>
       <r>   -2.0204    1.0000 </r>
       <r>   -2.0204    1.0000 </r>
       <r>   -1.4140    1.0000 </r>
       <r>   -1.4140    1.0000 </r>
       <r>    0.3602    1.0000 </r>
       <r>    0.3602    1.0000 </r>
       <r>    2.5218    1.0000 </r>
       <r>    2.5218    1.0000 </r>
       <r>    2.7478    1.0000 </r>
       <r>    2.7478    1.0000 </r>
       <r>    3.6936    1.0000 </r>
       <r>    3.6936    1.0000 </r>
       <r>    7.6111    0.0000 </r>
       <r>    7.6111    0.0000 </r>
       <r>    8.1119    0.0000 </r>
       <r>    8.1119    0.0000 </r>
      </set>
      <set comment="kpoint 27">
       <r>  -13.5072    1.0000 </r>
       <r>  -13.5072    1.0000 </r>
       <r>  -12.8507    1.0000 </r>
       <r>  -12.8507    1.0000 </r>
       <r>   -1.9856    1.0000 </r>
       <r>   -1.9856    1.0000 </r>
       <r>   -1.5153    1.0000 </r>
       <r>   -1.5153    1.0000 </r>
       <r>    0.4973    1.0000 </r>
       <r>    0.4973    1.0000 </r>
       <r>    2.4648    1.0000 </r>
       <r>    2.4648    1.0000 </r>
       <r>    2.6890    1.0000 </r>
       <r>    2.6890    1.0000 </r>
       <r>    3.6421    1.0000 </r>
       <r>    3.6421    1.0000 </r>
       <r>    7.6407    0.0000 </r>
       <r>    7.6407    0.0000 </r>
       <r>    8.2035    0.0000 </r>
       <r>    8.2035    0.0000 </r>
      </set>
      <set comment="kpoint 28">
       <r>  -13.5869    1.0000 </r>
       <r>  -13.5869    1.0000 </r>
       <r>  -12.8020    1.0000 </r>
       <r>  -12.8020    1.0000 </r>
       <r>   -1.9430    1.0000 </r>
       <r>   -1.9430    1.0000 </r>
       <r>   -1.6261    1.0000 </r>
       <r>   -1.6261    1.0000 </r>
       <r>    0.6577    1.0000 </r>
       <r>    0.6577    1.0000 </r>
       <r>    2.4046    1.0000 </r>
       <r>    2.4046    1.0000 </r>
       <r>    2.5928    1.0000 </r>
       <r>    2.5928    1.0000 </r>
       <r>    3.6210    1.0000 </r>
       <r>    3.6210    1.0000 </r>
       <r>    7.6643    0.0000 </r>
       <r>    7.6643    0.0000 </r>
       <r>    8.3044    0.0000 </r>
       <r>    8.3044    0.0000 </r>
      </set>
      <set comment="kpoint 29">
       <r>  -13.6719    1.0000 </r>
       <r>  -13.6719    1.0000 </r>
       <r>  -12.7500    1.0000 </r>
       <r>  -12.7500    1.0000 </r>
       <r>   -1.8935    1.0000 </r>
       <r>   -1.8935    1.0000 </r>
       <r>   -1.7434    1.0000 </r>
       <r>   -1.7434    1.0000 </r>
       <r>    0.8352    1.0000 </r>
       <r>    0.8352    1.0000 </r>
       <r>    2.3408    1.0000 </r>
       <r>    2.3408    1.0000 </r>
       <r>    2.4552    1.0000 </r>
       <r>    2.4552    1.0000 </r>
       <r>    3.6304    1.0000 </r>
       <r>    3.6304    1.0000 </r>
       <r>    7.6778    0.0000 </r>
       <r>    7.6778    0.0000 </r>
       <r>    8.3662    0.0000 </r>
       <r>    8.3678    0.0000 </r>
      </set>
      <set comment="kpoint 30">
       <r>  -13.7596    1.0000 </r>
       <r>  -13.7596    1.0000 </r>
       <r>  -12.6952    1.0000 </r>
       <r>  -12.6952    1.0000 </r>
       <r>   -1.8630    1.0000 </r>
       <r>   -1.8630    1.0000 </r>
       <r>   -1.8364    1.0000 </r>
       <r>   -1.8364    1.0000 </r>
       <r>    1.0266    1.0000 </r>
       <r>    1.0266    1.0000 </r>
       <r>    2.2765    1.0000 </r>
       <r>    2.2765    1.0000 </r>
       <r>    2.2835    1.0000 </r>
       <r>    2.2835    1.0000 </r>
       <r>    3.6682    1.0000 </r>
       <r>    3.6682    1.0000 </r>
       <r>    7.6792    0.0000 </r>
       <r>    7.6792    0.0000 </r>
       <r>    8.2495    0.0000 </r>
       <r>    8.2495    0.0000 </r>
      </set>
      <set comment="kpoint 31">
       <r>  -13.8472    1.0000 </r>
       <r>  -13.8472    1.0000 </r>
       <r>  -12.6383    1.0000 </r>
       <r>  -12.6383    1.0000 </r>
       <r>   -1.9813    1.0000 </r>
       <r>   -1.9813    1.0000 </r>
       <r>   -1.7708    1.0000 </r>
       <r>   -1.7708    1.0000 </r>
       <r>    1.2290    1.0000 </r>
       <r>    1.2290    1.0000 </r>
       <r>    2.0884    1.0000 </r>
       <r>    2.0884    1.0000 </r>
       <r>    2.2134    1.0000 </r>
       <r>    2.2134    1.0000 </r>
       <r>    3.7274    1.0000 </r>
       <r>    3.7274    1.0000 </r>
       <r>    7.6669    0.0000 </r>
       <r>    7.6669    0.0000 </r>
       <r>    8.1296    0.0000 </r>
       <r>    8.1296    0.0000 </r>
      </set>
      <set comment="kpoint 32">
       <r>  -13.9329    1.0000 </r>
       <r>  -13.9329    1.0000 </r>
       <r>  -12.5823    1.0000 </r>
       <r>  -12.5823    1.0000 </r>
       <r>   -2.0950    1.0000 </r>
       <r>   -2.0950    1.0000 </r>
       <r>   -1.6983    1.0000 </r>
       <r>   -1.6983    1.0000 </r>
       <r>    1.4346    1.0000 </r>
       <r>    1.4346    1.0000 </r>
       <r>    1.8773    1.0000 </r>
       <r>    1.8773    1.0000 </r>
       <r>    2.1529    1.0000 </r>
       <r>    2.1529    1.0000 </r>
       <r>    3.8004    1.0000 </r>
       <r>    3.8004    1.0000 </r>
       <r>    7.6408    0.0000 </r>
       <r>    7.6408    0.0000 </r>
       <r>    8.0089    0.0000 </r>
       <r>    8.0089    0.0000 </r>
      </set>
      <set comment="kpoint 33">
       <r>  -14.0145    1.0000 </r>
       <r>  -14.0145    1.0000 </r>
       <r>  -12.5281    1.0000 </r>
       <r>  -12.5281    1.0000 </r>
       <r>   -2.2016    1.0000 </r>
       <r>   -2.2016    1.0000 </r>
       <r>   -1.6186    1.0000 </r>
       <r>   -1.6186    1.0000 </r>
       <r>    1.6390    1.0000 </r>
       <r>    1.6390    1.0000 </r>
       <r>    1.6581    1.0000 </r>
       <r>    1.6581    1.0000 </r>
       <r>    2.0966    1.0000 </r>
       <r>    2.0966    1.0000 </r>
       <r>    3.8814    1.0000 </r>
       <r>    3.8814    1.0000 </r>
       <r>    7.6018    0.0000 </r>
       <r>    7.6018    0.0000 </r>
       <r>    7.8903    0.0000 </r>
       <r>    7.8903    0.0000 </r>
      </set>
      <set comment="kpoint 34">
       <r>  -14.0900    1.0000 </r>
       <r>  -14.0900    1.0000 </r>
       <r>  -12.4786    1.0000 </r>
       <r>  -12.4786    1.0000 </r>
       <r>   -2.3000    1.0000 </r>
       <r>   -2.3000    1.0000 </r>
       <r>   -1.5332    1.0000 </r>
       <r>   -1.5332    1.0000 </r>
       <r>    1.4399    1.0000 </r>
       <r>    1.4399    1.0000 </r>
       <r>    1.8375    1.0000 </r>
       <r>    1.8375    1.0000 </r>
       <r>    2.0428    1.0000 </r>
       <r>    2.0428    1.0000 </r>
       <r>    3.9647    1.0000 </r>
       <r>    3.9647    1.0000 </r>
       <r>    7.5524    0.0000 </r>
       <r>    7.5524    0.0000 </r>
       <r>    7.7766    0.0000 </r>
       <r>    7.7766    0.0000 </r>
      </set>
      <set comment="kpoint 35">
       <r>  -14.1555    1.0000 </r>
       <r>  -14.1555    1.0000 </r>
       <r>  -12.4320    1.0000 </r>
       <r>  -12.4320    1.0000 </r>
       <r>   -2.3848    1.0000 </r>
       <r>   -2.3848    1.0000 </r>
       <r>   -1.4425    1.0000 </r>
       <r>   -1.4425    1.0000 </r>
       <r>    1.2313    1.0000 </r>
       <r>    1.2313    1.0000 </r>
       <r>    1.9983    1.0000 </r>
       <r>    1.9983    1.0000 </r>
       <r>    2.0258    1.0000 </r>
       <r>    2.0258    1.0000 </r>
       <r>    4.0519    1.0000 </r>
       <r>    4.0519    1.0000 </r>
       <r>    7.4973    0.0000 </r>
       <r>    7.4973    0.0000 </r>
       <r>    7.6715    0.0000 </r>
       <r>    7.6715    0.0000 </r>
      </set>
      <set comment="kpoint 36">
       <r>  -14.2132    1.0000 </r>
       <r>  -14.2132    1.0000 </r>
       <r>  -12.3926    1.0000 </r>
       <r>  -12.3926    1.0000 </r>
       <r>   -2.4566    1.0000 </r>
       <r>   -2.4566    1.0000 </r>
       <r>   -1.3527    1.0000 </r>
       <r>   -1.3527    1.0000 </r>
       <r>    1.0346    1.0000 </r>
       <r>    1.0346    1.0000 </r>
       <r>    1.9603    1.0000 </r>
       <r>    1.9603    1.0000 </r>
       <r>    2.1881    1.0000 </r>
       <r>    2.1881    1.0000 </r>
       <r>    4.1281    1.0000 </r>
       <r>    4.1281    1.0000 </r>
       <r>    7.4399    0.0000 </r>
       <r>    7.4399    0.0000 </r>
       <r>    7.5780    0.0000 </r>
       <r>    7.5780    0.0000 </r>
      </set>
      <set comment="kpoint 37">
       <r>  -14.2588    1.0000 </r>
       <r>  -14.2588    1.0000 </r>
       <r>  -12.3601    1.0000 </r>
       <r>  -12.3601    1.0000 </r>
       <r>   -2.5134    1.0000 </r>
       <r>   -2.5134    1.0000 </r>
       <r>   -1.2670    1.0000 </r>
       <r>   -1.2670    1.0000 </r>
       <r>    0.8647    1.0000 </r>
       <r>    0.8647    1.0000 </r>
       <r>    1.9303    1.0000 </r>
       <r>    1.9303    1.0000 </r>
       <r>    2.3267    1.0000 </r>
       <r>    2.3267    1.0000 </r>
       <r>    4.1941    1.0000 </r>
       <r>    4.1941    1.0000 </r>
       <r>    7.3870    0.0000 </r>
       <r>    7.3870    0.0000 </r>
       <r>    7.5000    0.0000 </r>
       <r>    7.5000    0.0000 </r>
      </set>
      <set comment="kpoint 38">
       <r>  -14.2925    1.0000 </r>
       <r>  -14.2925    1.0000 </r>
       <r>  -12.3363    1.0000 </r>
       <r>  -12.3363    1.0000 </r>
       <r>   -2.5551    1.0000 </r>
       <r>   -2.5551    1.0000 </r>
       <r>   -1.1941    1.0000 </r>
       <r>   -1.1941    1.0000 </r>
       <r>    0.7289    1.0000 </r>
       <r>    0.7289    1.0000 </r>
       <r>    1.9086    1.0000 </r>
       <r>    1.9086    1.0000 </r>
       <r>    2.4318    1.0000 </r>
       <r>    2.4318    1.0000 </r>
       <r>    4.2450    1.0000 </r>
       <r>    4.2450    1.0000 </r>
       <r>    7.3437    0.0000 </r>
       <r>    7.3437    0.0000 </r>
       <r>    7.4409    0.0000 </r>
       <r>    7.4409    0.0000 </r>
      </set>
      <set comment="kpoint 39">
       <r>  -14.3121    1.0000 </r>
       <r>  -14.3121    1.0000 </r>
       <r>  -12.3213    1.0000 </r>
       <r>  -12.3213    1.0000 </r>
       <r>   -2.5800    1.0000 </r>
       <r>   -2.5800    1.0000 </r>
       <r>   -1.1433    1.0000 </r>
       <r>   -1.1433    1.0000 </r>
       <r>    0.6410    1.0000 </r>
       <r>    0.6410    1.0000 </r>
       <r>    1.8957    1.0000 </r>
       <r>    1.8957    1.0000 </r>
       <r>    2.5008    1.0000 </r>
       <r>    2.5008    1.0000 </r>
       <r>    4.2789    1.0000 </r>
       <r>    4.2789    1.0000 </r>
       <r>    7.3154    0.0000 </r>
       <r>    7.3154    0.0000 </r>
       <r>    7.4042    0.0000 </r>
       <r>    7.4042    0.0000 </r>
      </set>
      <set comment="kpoint 40">
       <r>  -14.3193    1.0000 </r>
       <r>  -14.3193    1.0000 </r>
       <r>  -12.3169    1.0000 </r>
       <r>  -12.3169    1.0000 </r>
       <r>   -2.5888    1.0000 </r>
       <r>   -2.5888    1.0000 </r>
       <r>   -1.1260    1.0000 </r>
       <r>   -1.1260    1.0000 </r>
       <r>    0.6098    1.0000 </r>
       <r>    0.6098    1.0000 </r>
       <r>    1.8907    1.0000 </r>
       <r>    1.8907    1.0000 </r>
       <r>    2.5224    1.0000 </r>
       <r>    2.5224    1.0000 </r>
       <r>    4.2888    1.0000 </r>
       <r>    4.2888    1.0000 </r>
       <r>    7.3055    0.0000 </r>
       <r>    7.3055    0.0000 </r>
       <r>    7.3915    0.0000 </r>
       <r>    7.3915    0.0000 </r>
      </set>
      <set comment="kpoint 41">
       <r>  -14.3193    1.0000 </r>
       <r>  -14.3193    1.0000 </r>
       <r>  -12.3169    1.0000 </r>
       <r>  -12.3169    1.0000 </r>
       <r>   -2.5888    1.0000 </r>
       <r>   -2.5888    1.0000 </r>
       <r>   -1.1260    1.0000 </r>
       <r>   -1.1260    1.0000 </r>
       <r>    0.6098    1.0000 </r>
       <r>    0.6098    1.0000 </r>
       <r>    1.8907    1.0000 </r>
       <r>    1.8907    1.0000 </r>
       <r>    2.5224    1.0000 </r>
       <r>    2.5224    1.0000 </r>
       <r>    4.2888    1.0000 </r>
       <r>    4.2888    1.0000 </r>
       <r>    7.3055    0.0000 </r>
       <r>    7.3055    0.0000 </r>
       <r>    7.3915    0.0000 </r>
       <r>    7.3915    0.0000 </r>
      </set>
      <set comment="kpoint 42">
       <r>  -14.3235    1.0000 </r>
       <r>  -14.3085    1.0000 </r>
       <r>  -12.3282    1.0000 </r>
       <r>  -12.3132    1.0000 </r>
       <r>   -2.5880    1.0000 </r>
       <r>   -2.5592    1.0000 </r>
       <r>   -1.1238    1.0000 </r>
       <r>   -1.1185    1.0000 </r>
       <r>    0.5576    1.0000 </r>
       <r>    0.6247    1.0000 </r>
       <r>    1.8897    1.0000 </r>
       <r>    1.9438    1.0000 </r>
       <r>    2.4999    1.0000 </r>
       <r>    2.5248    1.0000 </r>
       <r>    4.2241    1.0000 </r>
       <r>    4.2920    1.0000 </r>
       <r>    7.3064    0.0000 </r>
       <r>    7.3419    0.0000 </r>
       <r>    7.3909    0.0000 </r>
       <r>    7.4189    0.0000 </r>
      </set>
      <set comment="kpoint 43">
       <r>  -14.3391    1.0000 </r>
       <r>  -14.2792    1.0000 </r>
       <r>  -12.3661    1.0000 </r>
       <r>  -12.3064    1.0000 </r>
       <r>   -2.5894    1.0000 </r>
       <r>   -2.4777    1.0000 </r>
       <r>   -1.1197    1.0000 </r>
       <r>   -1.0986    1.0000 </r>
       <r>    0.4176    1.0000 </r>
       <r>    0.6644    1.0000 </r>
       <r>    1.8813    1.0000 </r>
       <r>    2.0781    1.0000 </r>
       <r>    2.4297    1.0000 </r>
       <r>    2.5291    1.0000 </r>
       <r>    4.0356    1.0000 </r>
       <r>    4.2961    1.0000 </r>
       <r>    7.3082    0.0000 </r>
       <r>    7.3890    0.0000 </r>
       <r>    7.4389    0.0000 </r>
       <r>    7.4975    0.0000 </r>
      </set>
      <set comment="kpoint 44">
       <r>  -14.3651    1.0000 </r>
       <r>  -14.2311    1.0000 </r>
       <r>  -12.4252    1.0000 </r>
       <r>  -12.2950    1.0000 </r>
       <r>   -2.5916    1.0000 </r>
       <r>   -2.3474    1.0000 </r>
       <r>   -1.1123    1.0000 </r>
       <r>   -1.0664    1.0000 </r>
       <r>    0.2267    1.0000 </r>
       <r>    0.7308    1.0000 </r>
       <r>    1.8683    1.0000 </r>
       <r>    2.2600    1.0000 </r>
       <r>    2.3244    1.0000 </r>
       <r>    2.5374    1.0000 </r>
       <r>    3.7520    1.0000 </r>
       <r>    4.3025    1.0000 </r>
       <r>    7.3106    0.0000 </r>
       <r>    7.3858    0.0000 </r>
       <r>    7.5729    0.0000 </r>
       <r>    7.6185    0.0000 </r>
      </set>
      <set comment="kpoint 45">
       <r>  -14.4018    1.0000 </r>
       <r>  -14.1654    1.0000 </r>
       <r>  -12.5009    1.0000 </r>
       <r>  -12.2796    1.0000 </r>
       <r>   -2.5944    1.0000 </r>
       <r>   -2.1780    1.0000 </r>
       <r>   -1.1023    1.0000 </r>
       <r>   -1.0246    1.0000 </r>
       <r>    0.0086    1.0000 </r>
       <r>    0.8247    1.0000 </r>
       <r>    1.8519    1.0000 </r>
       <r>    2.1926    1.0000 </r>
       <r>    2.4648    1.0000 </r>
       <r>    2.5479    1.0000 </r>
       <r>    3.4108    1.0000 </r>
       <r>    4.3094    1.0000 </r>
       <r>    7.3126    0.0000 </r>
       <r>    7.3813    0.0000 </r>
       <r>    7.7205    0.0000 </r>
       <r>    7.7691    0.0000 </r>
      </set>
      <set comment="kpoint 46">
       <r>  -14.4486    1.0000 </r>
       <r>  -14.0849    1.0000 </r>
       <r>  -12.5846    1.0000 </r>
       <r>  -12.2601    1.0000 </r>
       <r>   -2.5979    1.0000 </r>
       <r>   -1.9797    1.0000 </r>
       <r>   -1.0897    1.0000 </r>
       <r>   -0.9743    1.0000 </r>
       <r>   -0.2224    1.0000 </r>
       <r>    0.9463    1.0000 </r>
       <r>    1.8330    1.0000 </r>
       <r>    2.0450    1.0000 </r>
       <r>    2.5659    1.0000 </r>
       <r>    2.6799    1.0000 </r>
       <r>    3.0362    1.0000 </r>
       <r>    4.3178    1.0000 </r>
       <r>    7.3137    0.0000 </r>
       <r>    7.3760    0.0000 </r>
       <r>    7.8644    0.0000 </r>
       <r>    7.9340    0.0000 </r>
      </set>
      <set comment="kpoint 47">
       <r>  -14.5047    1.0000 </r>
       <r>  -13.9939    1.0000 </r>
       <r>  -12.6677    1.0000 </r>
       <r>  -12.2373    1.0000 </r>
       <r>   -2.6021    1.0000 </r>
       <r>   -1.7677    1.0000 </r>
       <r>   -1.0751    1.0000 </r>
       <r>   -0.9195    1.0000 </r>
       <r>   -0.4588    1.0000 </r>
       <r>    1.0976    1.0000 </r>
       <r>    1.8146    1.0000 </r>
       <r>    1.8922    1.0000 </r>
       <r>    2.5929    1.0000 </r>
       <r>    2.6529    1.0000 </r>
       <r>    2.8962    1.0000 </r>
       <r>    4.3285    1.0000 </r>
       <r>    7.3125    0.0000 </r>
       <r>    7.3700    0.0000 </r>
       <r>    7.9949    0.0000 </r>
       <r>    8.0969    0.0000 </r>
      </set>
      <set comment="kpoint 48">
       <r>  -14.5712    1.0000 </r>
       <r>  -13.8981    1.0000 </r>
       <r>  -12.7401    1.0000 </r>
       <r>  -12.2105    1.0000 </r>
       <r>   -2.6060    1.0000 </r>
       <r>   -1.5619    1.0000 </r>
       <r>   -1.0583    1.0000 </r>
       <r>   -0.8647    1.0000 </r>
       <r>   -0.6936    1.0000 </r>
       <r>    1.2689    1.0000 </r>
       <r>    1.7434    1.0000 </r>
       <r>    1.7987    1.0000 </r>
       <r>    2.2927    1.0000 </r>
       <r>    2.6251    1.0000 </r>
       <r>    3.1099    1.0000 </r>
       <r>    4.3406    1.0000 </r>
       <r>    7.3081    0.0000 </r>
       <r>    7.3634    0.0000 </r>
       <r>    8.1063    0.0000 </r>
       <r>    8.2403    0.0000 </r>
      </set>
      <set comment="kpoint 49">
       <r>  -14.6467    1.0000 </r>
       <r>  -13.8077    1.0000 </r>
       <r>  -12.7899    1.0000 </r>
       <r>  -12.1811    1.0000 </r>
       <r>   -2.6098    1.0000 </r>
       <r>   -1.3865    1.0000 </r>
       <r>   -1.0401    1.0000 </r>
       <r>   -0.9249    1.0000 </r>
       <r>   -0.8139    1.0000 </r>
       <r>    1.4297    1.0000 </r>
       <r>    1.6069    1.0000 </r>
       <r>    1.7862    1.0000 </r>
       <r>    2.0120    1.0000 </r>
       <r>    2.6683    1.0000 </r>
       <r>    3.3128    1.0000 </r>
       <r>    4.3487    1.0000 </r>
       <r>    7.2994    0.0000 </r>
       <r>    7.3563    0.0000 </r>
       <r>    8.1931    0.0000 </r>
       <r>    8.3474    0.0000 </r>
      </set>
      <set comment="kpoint 50">
       <r>  -14.7293    1.0000 </r>
       <r>  -13.7338    1.0000 </r>
       <r>  -12.8048    1.0000 </r>
       <r>  -12.1507    1.0000 </r>
       <r>   -2.6142    1.0000 </r>
       <r>   -1.2730    1.0000 </r>
       <r>   -1.1476    1.0000 </r>
       <r>   -1.0215    1.0000 </r>
       <r>   -0.7738    1.0000 </r>
       <r>    1.4415    1.0000 </r>
       <r>    1.4896    1.0000 </r>
       <r>    1.7765    1.0000 </r>
       <r>    1.9780    1.0000 </r>
       <r>    2.7206    1.0000 </r>
       <r>    3.5020    1.0000 </r>
       <r>    4.3635    1.0000 </r>
       <r>    7.2855    0.0000 </r>
       <r>    7.3492    0.0000 </r>
       <r>    8.2534    0.0000 </r>
       <r>    8.3145    0.0000 </r>
      </set>
      <set comment="kpoint 51">
       <r>  -14.8163    1.0000 </r>
       <r>  -13.6878    1.0000 </r>
       <r>  -12.7734    1.0000 </r>
       <r>  -12.1187    1.0000 </r>
       <r>   -2.6184    1.0000 </r>
       <r>   -1.3599    1.0000 </r>
       <r>   -1.2489    1.0000 </r>
       <r>   -1.0013    1.0000 </r>
       <r>   -0.7469    1.0000 </r>
       <r>    1.3247    1.0000 </r>
       <r>    1.3966    1.0000 </r>
       <r>    1.7708    1.0000 </r>
       <r>    2.1972    1.0000 </r>
       <r>    2.7857    1.0000 </r>
       <r>    3.6748    1.0000 </r>
       <r>    4.3817    1.0000 </r>
       <r>    7.2653    0.0000 </r>
       <r>    7.3422    0.0000 </r>
       <r>    8.1704    0.0000 </r>
       <r>    8.2858    0.0000 </r>
      </set>
      <set comment="kpoint 52">
       <r>  -14.9057    1.0000 </r>
       <r>  -13.6708    1.0000 </r>
       <r>  -12.6978    1.0000 </r>
       <r>  -12.0871    1.0000 </r>
       <r>   -2.6231    1.0000 </r>
       <r>   -1.5581    1.0000 </r>
       <r>   -1.3292    1.0000 </r>
       <r>   -0.9826    1.0000 </r>
       <r>   -0.7370    1.0000 </r>
       <r>    1.2604    1.0000 </r>
       <r>    1.3287    1.0000 </r>
       <r>    1.7697    1.0000 </r>
       <r>    2.5011    1.0000 </r>
       <r>    2.8644    1.0000 </r>
       <r>    3.8224    1.0000 </r>
       <r>    4.4047    1.0000 </r>
       <r>    7.2382    0.0000 </r>
       <r>    7.3354    0.0000 </r>
       <r>    8.0358    0.0000 </r>
       <r>    8.2879    0.0000 </r>
      </set>
      <set comment="kpoint 53">
       <r>  -14.9939    1.0000 </r>
       <r>  -13.6766    1.0000 </r>
       <r>  -12.5882    1.0000 </r>
       <r>  -12.0563    1.0000 </r>
       <r>   -2.6279    1.0000 </r>
       <r>   -1.7401    1.0000 </r>
       <r>   -1.4973    1.0000 </r>
       <r>   -0.9645    1.0000 </r>
       <r>   -0.7433    1.0000 </r>
       <r>    1.2750    1.0000 </r>
       <r>    1.2848    1.0000 </r>
       <r>    1.7726    1.0000 </r>
       <r>    2.8404    1.0000 </r>
       <r>    2.9568    1.0000 </r>
       <r>    3.9423    1.0000 </r>
       <r>    4.4349    1.0000 </r>
       <r>    7.2029    0.0000 </r>
       <r>    7.3291    0.0000 </r>
       <r>    7.9134    0.0000 </r>
       <r>    8.2290    0.0000 </r>
      </set>
      <set comment="kpoint 54">
       <r>  -15.0768    1.0000 </r>
       <r>  -13.6940    1.0000 </r>
       <r>  -12.4593    1.0000 </r>
       <r>  -12.0265    1.0000 </r>
       <r>   -2.6325    1.0000 </r>
       <r>   -1.9031    1.0000 </r>
       <r>   -1.7174    1.0000 </r>
       <r>   -0.9474    1.0000 </r>
       <r>   -0.7621    1.0000 </r>
       <r>    1.2615    1.0000 </r>
       <r>    1.3495    1.0000 </r>
       <r>    1.7794    1.0000 </r>
       <r>    3.0632    1.0000 </r>
       <r>    3.1989    1.0000 </r>
       <r>    4.0336    1.0000 </r>
       <r>    4.4750    1.0000 </r>
       <r>    7.1589    0.0000 </r>
       <r>    7.3233    0.0000 </r>
       <r>    7.8062    0.0000 </r>
       <r>    8.0765    0.0000 </r>
      </set>
      <set comment="kpoint 55">
       <r>  -15.1539    1.0000 </r>
       <r>  -13.7161    1.0000 </r>
       <r>  -12.3260    1.0000 </r>
       <r>  -12.0002    1.0000 </r>
       <r>   -2.6382    1.0000 </r>
       <r>   -2.0456    1.0000 </r>
       <r>   -1.9539    1.0000 </r>
       <r>   -0.9322    1.0000 </r>
       <r>   -0.7901    1.0000 </r>
       <r>    1.2525    1.0000 </r>
       <r>    1.4546    1.0000 </r>
       <r>    1.7877    1.0000 </r>
       <r>    3.1741    1.0000 </r>
       <r>    3.5514    1.0000 </r>
       <r>    4.0939    1.0000 </r>
       <r>    4.5162    1.0000 </r>
       <r>    7.1054    0.0000 </r>
       <r>    7.3182    0.0000 </r>
       <r>    7.7157    0.0000 </r>
       <r>    7.9021    0.0000 </r>
      </set>
      <set comment="kpoint 56">
       <r>  -15.2196    1.0000 </r>
       <r>  -13.7383    1.0000 </r>
       <r>  -12.1992    1.0000 </r>
       <r>  -11.9773    1.0000 </r>
       <r>   -2.6439    1.0000 </r>
       <r>   -2.1782    1.0000 </r>
       <r>   -2.1647    1.0000 </r>
       <r>   -0.9204    1.0000 </r>
       <r>   -0.8215    1.0000 </r>
       <r>    1.2506    1.0000 </r>
       <r>    1.5653    1.0000 </r>
       <r>    1.7977    1.0000 </r>
       <r>    3.2897    1.0000 </r>
       <r>    3.8903    1.0000 </r>
       <r>    4.1337    1.0000 </r>
       <r>    4.5602    1.0000 </r>
       <r>    7.0435    0.0000 </r>
       <r>    7.3140    0.0000 </r>
       <r>    7.6441    0.0000 </r>
       <r>    7.7237    0.0000 </r>
      </set>
      <set comment="kpoint 57">
       <r>  -15.2744    1.0000 </r>
       <r>  -13.7572    1.0000 </r>
       <r>  -12.0905    1.0000 </r>
       <r>  -11.9588    1.0000 </r>
       <r>   -2.6534    1.0000 </r>
       <r>   -2.3684    1.0000 </r>
       <r>   -2.2605    1.0000 </r>
       <r>   -0.9100    1.0000 </r>
       <r>   -0.8511    1.0000 </r>
       <r>    1.2549    1.0000 </r>
       <r>    1.6677    1.0000 </r>
       <r>    1.8066    1.0000 </r>
       <r>    3.3970    1.0000 </r>
       <r>    4.1544    1.0000 </r>
       <r>    4.1859    1.0000 </r>
       <r>    4.5933    1.0000 </r>
       <r>    6.9765    0.0000 </r>
       <r>    7.3107    0.0000 </r>
       <r>    7.5589    0.0000 </r>
       <r>    7.5899    0.0000 </r>
      </set>
      <set comment="kpoint 58">
       <r>  -15.3141    1.0000 </r>
       <r>  -13.7715    1.0000 </r>
       <r>  -12.0063    1.0000 </r>
       <r>  -11.9451    1.0000 </r>
       <r>   -2.6714    1.0000 </r>
       <r>   -2.5031    1.0000 </r>
       <r>   -2.3292    1.0000 </r>
       <r>   -0.9025    1.0000 </r>
       <r>   -0.8755    1.0000 </r>
       <r>    1.2596    1.0000 </r>
       <r>    1.7496    1.0000 </r>
       <r>    1.8143    1.0000 </r>
       <r>    3.4868    1.0000 </r>
       <r>    4.1668    1.0000 </r>
       <r>    4.4274    1.0000 </r>
       <r>    4.6190    1.0000 </r>
       <r>    6.9125    0.0000 </r>
       <r>    7.3082    0.0000 </r>
       <r>    7.4249    0.0000 </r>
       <r>    7.5528    0.0000 </r>
      </set>
      <set comment="kpoint 59">
       <r>  -15.3383    1.0000 </r>
       <r>  -13.7806    1.0000 </r>
       <r>  -11.9527    1.0000 </r>
       <r>  -11.9373    1.0000 </r>
       <r>   -2.7013    1.0000 </r>
       <r>   -2.5688    1.0000 </r>
       <r>   -2.3715    1.0000 </r>
       <r>   -0.8983    1.0000 </r>
       <r>   -0.8913    1.0000 </r>
       <r>    1.2633    1.0000 </r>
       <r>    1.8021    1.0000 </r>
       <r>    1.8191    1.0000 </r>
       <r>    3.5472    1.0000 </r>
       <r>    4.1728    1.0000 </r>
       <r>    4.5849    1.0000 </r>
       <r>    4.6356    1.0000 </r>
       <r>    6.8644    0.0000 </r>
       <r>    7.3068    0.0000 </r>
       <r>    7.3370    0.0000 </r>
       <r>    7.5313    0.0000 </r>
      </set>
      <set comment="kpoint 60">
       <r>  -15.3465    1.0000 </r>
       <r>  -13.7834    1.0000 </r>
       <r>  -11.9339    1.0000 </r>
       <r>  -11.9339    1.0000 </r>
       <r>   -2.7174    1.0000 </r>
       <r>   -2.5843    1.0000 </r>
       <r>   -2.3849    1.0000 </r>
       <r>   -0.8967    1.0000 </r>
       <r>   -0.8967    1.0000 </r>
       <r>    1.2647    1.0000 </r>
       <r>    1.8208    1.0000 </r>
       <r>    1.8208    1.0000 </r>
       <r>    3.5684    1.0000 </r>
       <r>    4.1764    1.0000 </r>
       <r>    4.6408    1.0000 </r>
       <r>    4.6408    1.0000 </r>
       <r>    6.8463    0.0000 </r>
       <r>    7.3063    0.0000 </r>
       <r>    7.3063    0.0000 </r>
       <r>    7.5243    0.0000 </r>
      </set>
      <set comment="kpoint 61">
       <r>  -15.3465    1.0000 </r>
       <r>  -13.7834    1.0000 </r>
[...]
        <r>  0.0000  0.0000  0.1333  0.0000  0.0000  0.0000  0.0000  0.0000  0.0000 </r>
        <r>  0.0000  0.0000  0.1333  0.0000  0.0000  0.0000  0.0000  0.0000  0.0000 </r>
        <r>  0.0000  0.0000  0.1333  0.0000  0.0000  0.0000  0.0000  0.0000  0.0000 </r>
       </set>
       <set comment="band 9">
        <r>  0.0000  0.0000  0.0001  0.0000  0.0000  0.0504  0.0000  0.2499  0.0000 </r>
        <r>  0.0000  0.0000  0.0001  0.0000  0.0000  0.0504  0.0000  0.2499  0.0000 </r>
        <r>  0.0000  0.0000  0.1333  0.0000  0.0000  0.0000  0.0000  0.0000  0.0000 </r>
        <r>  0.0000  0.0000  0.1333  0.0000  0.0000  0.0000  0.0000  0.0000  0.0000 </r>
        <r>  0.0000  0.0000  0.1333  0.0000  0.0000  0.0000  0.0000  0.0000  0.0000 </r>
        <r>  0.0000  0.0000  0.1333  0.0000  0.0000  0.0000  0.0000  0.0000  0.0000 </r>
       </set>
       <set comment="band 10">
        <r>  0.0000  0.0000  0.1835  0.0000  0.0000  0.0004  0.0000  0.0003  0.0000 </r>
        <r>  0.0000  0.0000  0.1835  0.0000  0.0000  0.0004  0.0000  0.0003  0.0000 </r>
        <r>  0.0000  0.0000  0.1669  0.0000  0.0000  0.0000  0.0000  0.0000  0.0000 </r>
        <r>  0.0000  0.0000  0.1669  0.0000  0.0000  0.0000  0.0000  0.0000  0.0000 </r>
        <r>  0.0000  0.0000  0.1669  0.0000  0.0000  0.0000  0.0000  0.0000  0.0000 </r>
        <r>  0.0000  0.0000  0.1669  0.0000  0.0000  0.0000  0.0000  0.0000  0.0000 </r>
       </set>
       <set comment="band 11">
        <r>  0.0000  0.0767  0.0000  0.0186  0.0007  0.0000  0.0000  0.0000  0.0006 </r>
        <r>  0.0000  0.0767  0.0000  0.0186  0.0007  0.0000  0.0000  0.0000  0.0006 </r>
        <r>  0.0013  0.0155  0.0000  0.1506  0.0000  0.0000  0.0000  0.0000  0.0000 </r>
        <r>  0.0013  0.0155  0.0000  0.1506  0.0000  0.0000  0.0000  0.0000  0.0000 </r>
        <r>  0.0013  0.0155  0.0000  0.1506  0.0000  0.0000  0.0000  0.0000  0.0000 </r>
        <r>  0.0013  0.0155  0.0000  0.1506  0.0000  0.0000  0.0000  0.0000  0.0000 </r>
       </set>
       <set comment="band 12">
        <r>  0.0002  0.0187  0.0000  0.0772  0.0001  0.0000  0.0002  0.0000  0.0000 </r>
        <r>  0.0002  0.0187  0.0000  0.0772  0.0001  0.0000  0.0002  0.0000  0.0000 </r>
        <r>  0.0013  0.1510  0.0000  0.0155  0.0000  0.0000  0.0000  0.0000  0.0000 </r>
        <r>  0.0013  0.1510  0.0000  0.0155  0.0000  0.0000  0.0000  0.0000  0.0000 </r>
        <r>  0.0013  0.1510  0.0000  0.0155  0.0000  0.0000  0.0000  0.0000  0.0000 </r>
        <r>  0.0013  0.1510  0.0000  0.0155  0.0000  0.0000  0.0000  0.0000  0.0000 </r>
       </set>
       <set comment="band 13">
        <r>  0.0000  0.0000  0.0746  0.0000  0.0000  0.0001  0.0000  0.0014  0.0000 </r>
        <r>  0.0000  0.0000  0.0746  0.0000  0.0000  0.0001  0.0000  0.0014  0.0000 </r>
        <r>  0.0000  0.0000  0.2022  0.0000  0.0000  0.0000  0.0000  0.0000  0.0000 </r>
        <r>  0.0000  0.0000  0.2022  0.0000  0.0000  0.0000  0.0000  0.0000  0.0000 </r>
        <r>  0.0000  0.0000  0.2022  0.0000  0.0000  0.0000  0.0000  0.0000  0.0000 </r>
        <r>  0.0000  0.0000  0.2022  0.0000  0.0000  0.0000  0.0000  0.0000  0.0000 </r>
       </set>
       <set comment="band 14">
        <r>  0.0000  0.0002  0.0000  0.0000  0.0000  0.0000  0.0000  0.0000  0.0172 </r>
        <r>  0.0000  0.0002  0.0000  0.0000  0.0000  0.0000  0.0000  0.0000  0.0172 </r>
        <r>  0.0000  0.0977  0.0000  0.0978  0.0000  0.0000  0.0000  0.0000  0.0000 </r>
        <r>  0.0000  0.0977  0.0000  0.0978  0.0000  0.0000  0.0000  0.0000  0.0000 </r>
        <r>  0.0000  0.0977  0.0000  0.0978  0.0000  0.0000  0.0000  0.0000  0.0000 </r>
        <r>  0.0000  0.0977  0.0000  0.0978  0.0000  0.0000  0.0000  0.0000  0.0000 </r>
       </set>
       <set comment="band 15">
        <r>  0.0002  0.0599  0.0000  0.0167  0.0008  0.0000  0.0001  0.0000  0.0003 </r>
        <r>  0.0002  0.0599  0.0000  0.0167  0.0008  0.0000  0.0001  0.0000  0.0003 </r>
        <r>  0.0003  0.1927  0.0000  0.0177  0.0000  0.0000  0.0000  0.0000  0.0000 </r>
        <r>  0.0003  0.1927  0.0000  0.0177  0.0000  0.0000  0.0000  0.0000  0.0000 </r>
        <r>  0.0003  0.1927  0.0000  0.0177  0.0000  0.0000  0.0000  0.0000  0.0000 </r>
        <r>  0.0003  0.1927  0.0000  0.0177  0.0000  0.0000  0.0000  0.0000  0.0000 </r>
       </set>
       <set comment="band 16">
        <r>  0.0001  0.0165  0.0000  0.0597  0.0003  0.0000  0.0010  0.0000  0.0000 </r>
        <r>  0.0001  0.0165  0.0000  0.0597  0.0003  0.0000  0.0010  0.0000  0.0000 </r>
        <r>  0.0003  0.0174  0.0000  0.1931  0.0000  0.0000  0.0000  0.0000  0.0000 </r>
        <r>  0.0003  0.0174  0.0000  0.1931  0.0000  0.0000  0.0000  0.0000  0.0000 </r>
        <r>  0.0003  0.0174  0.0000  0.1931  0.0000  0.0000  0.0000  0.0000  0.0000 </r>
        <r>  0.0003  0.0174  0.0000  0.1931  0.0000  0.0000  0.0000  0.0000  0.0000 </r>
       </set>
       <set comment="band 17">
        <r>  0.0071  0.0004  0.0000  0.0002  0.3491  0.0000  0.0992  0.0000  0.0000 </r>
        <r>  0.0071  0.0004  0.0000  0.0002  0.3491  0.0000  0.0992  0.0000  0.0000 </r>
        <r>  0.0023  0.0011  0.0000  0.0014  0.0000  0.0000  0.0000  0.0000  0.0000 </r>
        <r>  0.0023  0.0011  0.0000  0.0014  0.0000  0.0000  0.0000  0.0000  0.0000 </r>
        <r>  0.0023  0.0011  0.0000  0.0014  0.0000  0.0000  0.0000  0.0000  0.0000 </r>
        <r>  0.0023  0.0011  0.0000  0.0014  0.0000  0.0000  0.0000  0.0000  0.0000 </r>
       </set>
       <set comment="band 18">
        <r>  0.0000  0.0000  0.0003  0.0000  0.0000  0.4135  0.0000  0.0743  0.0000 </r>
        <r>  0.0000  0.0000  0.0003  0.0000  0.0000  0.4135  0.0000  0.0743  0.0000 </r>
        <r>  0.0000  0.0000  0.0004  0.0000  0.0000  0.0000  0.0000  0.0000  0.0000 </r>
        <r>  0.0000  0.0000  0.0004  0.0000  0.0000  0.0000  0.0000  0.0000  0.0000 </r>
        <r>  0.0000  0.0000  0.0004  0.0000  0.0000  0.0000  0.0000  0.0000  0.0000 </r>
        <r>  0.0000  0.0000  0.0004  0.0000  0.0000  0.0000  0.0000  0.0000  0.0000 </r>
       </set>
       <set comment="band 19">
        <r>  0.0000  0.0000  0.0003  0.0000  0.0000  0.0743  0.0000  0.4126  0.0000 </r>
        <r>  0.0000  0.0000  0.0003  0.0000  0.0000  0.0743  0.0000  0.4126  0.0000 </r>
        <r>  0.0000  0.0000  0.0008  0.0000  0.0000  0.0000  0.0000  0.0000  0.0000 </r>
        <r>  0.0000  0.0000  0.0008  0.0000  0.0000  0.0000  0.0000  0.0000  0.0000 </r>
        <r>  0.0000  0.0000  0.0008  0.0000  0.0000  0.0000  0.0000  0.0000  0.0000 </r>
        <r>  0.0000  0.0000  0.0008  0.0000  0.0000  0.0000  0.0000  0.0000  0.0000 </r>
       </set>
       <set comment="band 20">
        <r>  0.0000  0.0000  0.0000  0.0000  0.0000  0.0000  0.0000  0.0000  0.4714 </r>
        <r>  0.0000  0.0000  0.0000  0.0000  0.0000  0.0000  0.0000  0.0000  0.4714 </r>
        <r>  0.0000  0.0040  0.0000  0.0038  0.0000  0.0000  0.0000  0.0000  0.0000 </r>
        <r>  0.0000  0.0040  0.0000  0.0038  0.0000  0.0000  0.0000  0.0000  0.0000 </r>
        <r>  0.0000  0.0040  0.0000  0.0038  0.0000  0.0000  0.0000  0.0000  0.0000 </r>
        <r>  0.0000  0.0040  0.0000  0.0038  0.0000  0.0000  0.0000  0.0000  0.0000 </r>
       </set>
      </set>
      <set comment="kpoint 140">
       <set comment="band 1">
        <r>  0.1849  0.0000  0.0000  0.0000  0.0050  0.0000  0.0047  0.0000  0.0000 </r>
        <r>  0.1849  0.0000  0.0000  0.0000  0.0050  0.0000  0.0047  0.0000  0.0000 </r>
        <r>  0.1771  0.0001  0.0000  0.0001  0.0000  0.0000  0.0000  0.0000  0.0000 </r>
        <r>  0.1771  0.0001  0.0000  0.0001  0.0000  0.0000  0.0000  0.0000  0.0000 </r>
        <r>  0.1771  0.0001  0.0000  0.0001  0.0000  0.0000  0.0000  0.0000  0.0000 </r>
        <r>  0.1771  0.0001  0.0000  0.0001  0.0000  0.0000  0.0000  0.0000  0.0000 </r>
       </set>
       <set comment="band 2">
        <r>  0.0128  0.0000  0.0000  0.0000  0.0921  0.0000  0.1093  0.0000  0.0000 </r>
        <r>  0.0128  0.0000  0.0000  0.0000  0.0921  0.0000  0.1093  0.0000  0.0000 </r>
        <r>  0.1977  0.0002  0.0000  0.0002  0.0000  0.0000  0.0000  0.0000  0.0000 </r>
        <r>  0.1977  0.0002  0.0000  0.0002  0.0000  0.0000  0.0000  0.0000  0.0000 </r>
        <r>  0.1977  0.0002  0.0000  0.0002  0.0000  0.0000  0.0000  0.0000  0.0000 </r>
        <r>  0.1977  0.0002  0.0000  0.0002  0.0000  0.0000  0.0000  0.0000  0.0000 </r>
       </set>
       <set comment="band 3">
        <r>  0.0000  0.0685  0.0000  0.0134  0.0000  0.0000  0.0000  0.0000  0.0000 </r>
        <r>  0.0000  0.0705  0.0000  0.0154  0.0000  0.0000  0.0000  0.0000  0.0000 </r>
        <r>  0.1235  0.0001  0.0000  0.0000  0.0000  0.0000  0.0000  0.0000  0.0000 </r>
        <r>  0.1235  0.0001  0.0000  0.0000  0.0000  0.0000  0.0000  0.0000  0.0000 </r>
        <r>  0.2993  0.0001  0.0000  0.0000  0.0000  0.0000  0.0000  0.0000  0.0000 </r>
        <r>  0.2993  0.0001  0.0000  0.0000  0.0000  0.0000  0.0000  0.0000  0.0000 </r>
       </set>
       <set comment="band 4">
        <r>  0.0000  0.0154  0.0000  0.0705  0.0000  0.0000  0.0000  0.0000  0.0000 </r>
        <r>  0.0000  0.0134  0.0000  0.0685  0.0000  0.0000  0.0000  0.0000  0.0000 </r>
        <r>  0.2993  0.0000  0.0000  0.0001  0.0000  0.0000  0.0000  0.0000  0.0000 </r>
        <r>  0.2993  0.0000  0.0000  0.0001  0.0000  0.0000  0.0000  0.0000  0.0000 </r>
        <r>  0.1235  0.0000  0.0000  0.0001  0.0000  0.0000  0.0000  0.0000  0.0000 </r>
        <r>  0.1235  0.0000  0.0000  0.0001  0.0000  0.0000  0.0000  0.0000  0.0000 </r>
       </set>
       <set comment="band 5">
        <r>  0.1339  0.0000  0.0000  0.0000  0.1482  0.0000  0.0392  0.0000  0.0000 </r>
        <r>  0.1339  0.0000  0.0000  0.0000  0.1482  0.0000  0.0392  0.0000  0.0000 </r>
        <r>  0.0013  0.0641  0.0000  0.0641  0.0000  0.0000  0.0000  0.0000  0.0000 </r>
        <r>  0.0013  0.0641  0.0000  0.0641  0.0000  0.0000  0.0000  0.0000  0.0000 </r>
        <r>  0.0013  0.0641  0.0000  0.0641  0.0000  0.0000  0.0000  0.0000  0.0000 </r>
        <r>  0.0013  0.0641  0.0000  0.0641  0.0000  0.0000  0.0000  0.0000  0.0000 </r>
       </set>
       <set comment="band 6">
        <r>  0.0002  0.0000  0.0000  0.0000  0.0887  0.0000  0.2722  0.0000  0.0000 </r>
        <r>  0.0002  0.0000  0.0000  0.0000  0.0887  0.0000  0.2722  0.0000  0.0000 </r>
        <r>  0.0002  0.0659  0.0000  0.0659  0.0000  0.0000  0.0000  0.0000  0.0000 </r>
        <r>  0.0002  0.0659  0.0000  0.0659  0.0000  0.0000  0.0000  0.0000  0.0000 </r>
        <r>  0.0002  0.0659  0.0000  0.0659  0.0000  0.0000  0.0000  0.0000  0.0000 </r>
        <r>  0.0002  0.0659  0.0000  0.0659  0.0000  0.0000  0.0000  0.0000  0.0000 </r>
       </set>
       <set comment="band 7">
        <r>  0.0000  0.0000  0.0000  0.0000  0.0000  0.0000  0.0000  0.0000  0.1726 </r>
        <r>  0.0000  0.0000  0.0000  0.0000  0.0000  0.0000  0.0000  0.0000  0.1726 </r>
        <r>  0.0000  0.0528  0.0000  0.0528  0.0000  0.0000  0.0000  0.0000  0.0000 </r>
        <r>  0.0000  0.0528  0.0000  0.0528  0.0000  0.0000  0.0000  0.0000  0.0000 </r>
        <r>  0.0000  0.0528  0.0000  0.0528  0.0000  0.0000  0.0000  0.0000  0.0000 </r>
        <r>  0.0000  0.0528  0.0000  0.0528  0.0000  0.0000  0.0000  0.0000  0.0000 </r>
       </set>
       <set comment="band 8">
        <r>  0.0000  0.0000  0.0000  0.0000  0.0000  0.0109  0.0000  0.1008  0.0000 </r>
        <r>  0.0000  0.0000  0.0000  0.0000  0.0000  0.1997  0.0000  0.2896  0.0000 </r>
        <r>  0.0000  0.0000  0.2456  0.0000  0.0000  0.0000  0.0000  0.0000  0.0000 </r>
        <r>  0.0000  0.0000  0.2456  0.0000  0.0000  0.0000  0.0000  0.0000  0.0000 </r>
        <r>  0.0000  0.0000  0.0210  0.0000  0.0000  0.0000  0.0000  0.0000  0.0000 </r>
        <r>  0.0000  0.0000  0.0210  0.0000  0.0000  0.0000  0.0000  0.0000  0.0000 </r>
       </set>
       <set comment="band 9">
        <r>  0.0000  0.0000  0.0000  0.0000  0.0000  0.2896  0.0000  0.1997  0.0000 </r>
        <r>  0.0000  0.0000  0.0000  0.0000  0.0000  0.1008  0.0000  0.0109  0.0000 </r>
        <r>  0.0000  0.0000  0.0210  0.0000  0.0000  0.0000  0.0000  0.0000  0.0000 </r>
        <r>  0.0000  0.0000  0.0210  0.0000  0.0000  0.0000  0.0000  0.0000  0.0000 </r>
        <r>  0.0000  0.0000  0.2456  0.0000  0.0000  0.0000  0.0000  0.0000  0.0000 </r>
        <r>  0.0000  0.0000  0.2456  0.0000  0.0000  0.0000  0.0000  0.0000  0.0000 </r>
       </set>
       <set comment="band 10">
        <r>  0.0000  0.0000  0.1840  0.0000  0.0000  0.0000  0.0000  0.0000  0.0000 </r>
        <r>  0.0000  0.0000  0.1840  0.0000  0.0000  0.0000  0.0000  0.0000  0.0000 </r>
        <r>  0.0000  0.0000  0.1670  0.0000  0.0000  0.0000  0.0000  0.0000  0.0000 </r>
        <r>  0.0000  0.0000  0.1670  0.0000  0.0000  0.0000  0.0000  0.0000  0.0000 </r>
        <r>  0.0000  0.0000  0.1670  0.0000  0.0000  0.0000  0.0000  0.0000  0.0000 </r>
        <r>  0.0000  0.0000  0.1670  0.0000  0.0000  0.0000  0.0000  0.0000  0.0000 </r>
       </set>
       <set comment="band 11">
        <r>  0.0000  0.0608  0.0000  0.0112  0.0000  0.0000  0.0000  0.0000  0.0000 </r>
        <r>  0.0000  0.0848  0.0000  0.0352  0.0000  0.0000  0.0000  0.0000  0.0000 </r>
        <r>  0.0008  0.0409  0.0000  0.1562  0.0000  0.0000  0.0000  0.0000  0.0000 </r>
        <r>  0.0008  0.0409  0.0000  0.1562  0.0000  0.0000  0.0000  0.0000  0.0000 </r>
        <r>  0.0016  0.0104  0.0000  0.1256  0.0000  0.0000  0.0000  0.0000  0.0000 </r>
        <r>  0.0016  0.0104  0.0000  0.1256  0.0000  0.0000  0.0000  0.0000  0.0000 </r>
       </set>
       <set comment="band 12">
        <r>  0.0000  0.0352  0.0000  0.0848  0.0000  0.0000  0.0000  0.0000  0.0000 </r>
        <r>  0.0000  0.0112  0.0000  0.0608  0.0000  0.0000  0.0000  0.0000  0.0000 </r>
        <r>  0.0016  0.1256  0.0000  0.0104  0.0000  0.0000  0.0000  0.0000  0.0000 </r>
        <r>  0.0016  0.1256  0.0000  0.0104  0.0000  0.0000  0.0000  0.0000  0.0000 </r>
        <r>  0.0008  0.1562  0.0000  0.0409  0.0000  0.0000  0.0000  0.0000  0.0000 </r>
        <r>  0.0008  0.1562  0.0000  0.0409  0.0000  0.0000  0.0000  0.0000  0.0000 </r>
       </set>
       <set comment="band 13">
        <r>  0.0000  0.0000  0.0748  0.0000  0.0000  0.0000  0.0000  0.0000  0.0000 </r>
        <r>  0.0000  0.0000  0.0748  0.0000  0.0000  0.0000  0.0000  0.0000  0.0000 </r>
        <r>  0.0000  0.0000  0.2028  0.0000  0.0000  0.0000  0.0000  0.0000  0.0000 </r>
        <r>  0.0000  0.0000  0.2028  0.0000  0.0000  0.0000  0.0000  0.0000  0.0000 </r>
        <r>  0.0000  0.0000  0.2028  0.0000  0.0000  0.0000  0.0000  0.0000  0.0000 </r>
        <r>  0.0000  0.0000  0.2028  0.0000  0.0000  0.0000  0.0000  0.0000  0.0000 </r>
       </set>
       <set comment="band 14">
        <r>  0.0000  0.0000  0.0000  0.0000  0.0000  0.0000  0.0000  0.0000  0.0176 </r>
        <r>  0.0000  0.0000  0.0000  0.0000  0.0000  0.0000  0.0000  0.0000  0.0176 </r>
        <r>  0.0000  0.0977  0.0000  0.0977  0.0000  0.0000  0.0000  0.0000  0.0000 </r>
        <r>  0.0000  0.0977  0.0000  0.0977  0.0000  0.0000  0.0000  0.0000  0.0000 </r>
        <r>  0.0000  0.0977  0.0000  0.0977  0.0000  0.0000  0.0000  0.0000  0.0000 </r>
        <r>  0.0000  0.0977  0.0000  0.0977  0.0000  0.0000  0.0000  0.0000  0.0000 </r>
       </set>
       <set comment="band 15">
        <r>  0.0000  0.0023  0.0000  0.0178  0.0000  0.0000  0.0000  0.0000  0.0000 </r>
        <r>  0.0000  0.0595  0.0000  0.0749  0.0000  0.0000  0.0000  0.0000  0.0000 </r>
        <r>  0.0000  0.0220  0.0000  0.0840  0.0000  0.0000  0.0000  0.0000  0.0000 </r>
        <r>  0.0000  0.0220  0.0000  0.0840  0.0000  0.0000  0.0000  0.0000  0.0000 </r>
        <r>  0.0004  0.1270  0.0000  0.1890  0.0000  0.0000  0.0000  0.0000  0.0000 </r>
        <r>  0.0004  0.1270  0.0000  0.1890  0.0000  0.0000  0.0000  0.0000  0.0000 </r>
       </set>
       <set comment="band 16">
        <r>  0.0000  0.0749  0.0000  0.0595  0.0000  0.0000  0.0000  0.0000  0.0000 </r>
        <r>  0.0000  0.0178  0.0000  0.0023  0.0000  0.0000  0.0000  0.0000  0.0000 </r>
        <r>  0.0004  0.1890  0.0000  0.1270  0.0000  0.0000  0.0000  0.0000  0.0000 </r>
        <r>  0.0004  0.1890  0.0000  0.1270  0.0000  0.0000  0.0000  0.0000  0.0000 </r>
        <r>  0.0000  0.0840  0.0000  0.0220  0.0000  0.0000  0.0000  0.0000  0.0000 </r>
        <r>  0.0000  0.0840  0.0000  0.0220  0.0000  0.0000  0.0000  0.0000  0.0000 </r>
       </set>
       <set comment="band 17">
        <r>  0.0070  0.0000  0.0000  0.0000  0.3503  0.0000  0.0992  0.0000  0.0000 </r>
        <r>  0.0070  0.0000  0.0000  0.0000  0.3503  0.0000  0.0992  0.0000  0.0000 </r>
        <r>  0.0022  0.0010  0.0000  0.0010  0.0000  0.0000  0.0000  0.0000  0.0000 </r>
        <r>  0.0022  0.0010  0.0000  0.0010  0.0000  0.0000  0.0000  0.0000  0.0000 </r>
        <r>  0.0022  0.0010  0.0000  0.0010  0.0000  0.0000  0.0000  0.0000  0.0000 </r>
        <r>  0.0022  0.0010  0.0000  0.0010  0.0000  0.0000  0.0000  0.0000  0.0000 </r>
       </set>
       <set comment="band 18">
        <r>  0.0000  0.0000  0.0000  0.0000  0.0000  0.0924  0.0000  0.1705  0.0000 </r>
        <r>  0.0000  0.0000  0.0000  0.0000  0.0000  0.3178  0.0000  0.3959  0.0000 </r>
        <r>  0.0000  0.0000  0.0001  0.0000  0.0000  0.0000  0.0000  0.0000  0.0000 </r>
        <r>  0.0000  0.0000  0.0001  0.0000  0.0000  0.0000  0.0000  0.0000  0.0000 </r>
        <r>  0.0000  0.0000  0.0004  0.0000  0.0000  0.0000  0.0000  0.0000  0.0000 </r>
        <r>  0.0000  0.0000  0.0004  0.0000  0.0000  0.0000  0.0000  0.0000  0.0000 </r>
       </set>
       <set comment="band 19">
        <r>  0.0000  0.0000  0.0000  0.0000  0.0000  0.3959  0.0000  0.3178  0.0000 </r>
        <r>  0.0000  0.0000  0.0000  0.0000  0.0000  0.1705  0.0000  0.0924  0.0000 </r>
        <r>  0.0000  0.0000  0.0004  0.0000  0.0000  0.0000  0.0000  0.0000  0.0000 </r>
        <r>  0.0000  0.0000  0.0004  0.0000  0.0000  0.0000  0.0000  0.0000  0.0000 </r>
        <r>  0.0000  0.0000  0.0001  0.0000  0.0000  0.0000  0.0000  0.0000  0.0000 </r>
        <r>  0.0000  0.0000  0.0001  0.0000  0.0000  0.0000  0.0000  0.0000  0.0000 </r>
       </set>
       <set comment="band 20">
        <r>  0.0000  0.0000  0.0000  0.0000  0.0000  0.0000  0.0000  0.0000  0.4719 </r>
        <r>  0.0000  0.0000  0.0000  0.0000  0.0000  0.0000  0.0000  0.0000  0.4719 </r>
        <r>  0.0000  0.0038  0.0000  0.0038  0.0000  0.0000  0.0000  0.0000  0.0000 </r>
        <r>  0.0000  0.0038  0.0000  0.0038  0.0000  0.0000  0.0000  0.0000  0.0000 </r>
        <r>  0.0000  0.0038  0.0000  0.0038  0.0000  0.0000  0.0000  0.0000  0.0000 </r>
        <r>  0.0000  0.0038  0.0000  0.0038  0.0000  0.0000  0.0000  0.0000  0.0000 </r>
       </set>
      </set>
     </set>
    </set>
   </array>
  </projected>
 </calculation>
 <structure name="finalpos" >
  <crystal>
   <varray name="basis" >
    <v>       4.00000000       0.00000000       0.00000000 </v>
    <v>       0.00000000       4.00000000       0.00000000 </v>
    <v>       0.00000000       0.00000000       3.00000000 </v>
   </varray>
   <i name="volume">     48.00000000 </i>
   <varray name="rec_basis" >
    <v>       0.25000000       0.00000000       0.00000000 </v>
    <v>       0.00000000       0.25000000       0.00000000 </v>
    <v>       0.00000000       0.00000000       0.33333333 </v>
   </varray>
  </crystal>
  <varray name="positions" >
   <v>       0.00000000       0.00000000       0.00000000 </v>
   <v>       0.50000000       0.50000000       0.50000000 </v>
   <v>       0.31000000       0.31000000       0.00000000 </v>
   <v>       0.69000000       0.69000000       0.00000000 </v>
   <v>       0.19000000       0.81000000       0.50000000 </v>
   <v>       0.81000000       0.19000000       0.50000000 </v>
  </varray>
 </structure>
</modeling>
